/*--------------------------------*- C++ -*----------------------------------*\
  =========                 |
  \\      /  F ield         | OpenFOAM: The Open Source CFD Toolbox
   \\    /   O peration     | Website:  https://openfoam.org
    \\  /    A nd           | Version:  10
     \\/     M anipulation  |
\*---------------------------------------------------------------------------*/
FoamFile
{
    format      ascii;
    class       volVectorField;
    location    "5.175";
    object      U;
}
// * * * * * * * * * * * * * * * * * * * * * * * * * * * * * * * * * * * * * //

dimensions      [0 1 -1 0 0 0 0];

internalField   nonuniform List<vector> 
8000
(
(-4.66505e-05 6.15205e-05 -2.04576e-05)
(-0.000409337 0.000157706 1.5948e-05)
(-0.00101989 0.000185302 2.89273e-05)
(-0.00162264 0.000192263 3.47768e-05)
(-0.00223579 0.000194492 3.44982e-05)
(-0.00283533 0.000195515 3.04637e-05)
(-0.00340885 0.000194525 2.3843e-05)
(-0.00394239 0.000189681 1.47337e-05)
(-0.00441863 0.000178707 2.3714e-06)
(-0.00481614 0.000159857 -1.28713e-05)
(-0.00510876 0.000131452 -3.08329e-05)
(-0.00526714 9.26586e-05 -5.12566e-05)
(-0.00526033 4.25406e-05 -7.41129e-05)
(-0.00505867 -1.97665e-05 -9.86127e-05)
(-0.00463962 -9.07671e-05 -0.000123369)
(-0.00399366 -0.000164989 -0.000145516)
(-0.0031335 -0.000233407 -0.000160027)
(-0.00212488 -0.000280551 -0.000159479)
(-0.000977536 -0.000275922 -0.000138515)
(-0.000179179 -0.000136274 -5.88382e-05)
(-0.000138769 0.000477126 -7.84478e-05)
(-0.000803405 0.000883798 -4.92147e-05)
(-0.00182247 0.000994994 -3.56898e-05)
(-0.0028237 0.00101008 -2.59219e-05)
(-0.00382844 0.000994698 -2.12983e-05)
(-0.00479756 0.000964272 -1.98154e-05)
(-0.00570857 0.000918093 -2.04418e-05)
(-0.00653873 0.000851399 -2.32258e-05)
(-0.00726098 0.000758218 -2.86111e-05)
(-0.00784353 0.000633067 -3.69697e-05)
(-0.00824928 0.000470835 -4.86011e-05)
(-0.00843837 0.000267294 -6.37114e-05)
(-0.00837124 2.14507e-05 -8.29346e-05)
(-0.0080075 -0.000261379 -0.000103873)
(-0.00731628 -0.000569278 -0.000125652)
(-0.00628746 -0.000880797 -0.000145206)
(-0.00494315 -0.00116104 -0.000156373)
(-0.00337748 -0.00134939 -0.000150724)
(-0.00160984 -0.00132728 -0.000122827)
(-0.000330888 -0.000773088 -2.49548e-05)
(-0.00016675 0.00118038 -0.000106731)
(-0.000935858 0.00201946 -8.08385e-05)
(-0.0020989 0.00223982 -6.70398e-05)
(-0.00323503 0.0022549 -5.51376e-05)
(-0.00437148 0.0021997 -4.79713e-05)
(-0.0054654 0.00210625 -4.36401e-05)
(-0.00649285 0.00197531 -4.12176e-05)
(-0.00742974 0.00179976 -4.08733e-05)
(-0.00824727 0.00157032 -4.31705e-05)
(-0.0089115 0.00127715 -4.87454e-05)
(-0.00938356 0.000911242 -5.81769e-05)
(-0.00961923 0.000465808 -7.19585e-05)
(-0.00956909 -5.94099e-05 -9.0274e-05)
(-0.00918496 -0.00065636 -0.00011194)
(-0.00842849 -0.00130007 -0.000135449)
(-0.0072791 -0.00194825 -0.000157293)
(-0.00575272 -0.00253087 -0.000170098)
(-0.00395225 -0.0029247 -0.000163703)
(-0.00189522 -0.00288894 -0.000131917)
(-0.000392765 -0.00177479 -1.94667e-05)
(-0.000171806 0.00190991 -0.000127915)
(-0.000980904 0.0032033 -0.000105334)
(-0.00220759 0.00353327 -9.17194e-05)
(-0.00340351 0.0035462 -7.85949e-05)
(-0.00460295 0.00345097 -6.98939e-05)
(-0.0057626 0.0032966 -6.38088e-05)
(-0.00686009 0.0030851 -5.95223e-05)
(-0.00787273 0.00280674 -5.74135e-05)
(-0.00877255 0.00244814 -5.8216e-05)
(-0.00952527 0.0019944 -6.2724e-05)
(-0.0100892 0.00143109 -7.17645e-05)
(-0.0104151 0.000747762 -8.62444e-05)
(-0.0104484 -5.87585e-05 -0.000107647)
(-0.0101251 -0.000978747 -0.000132522)
(-0.00938467 -0.00198165 -0.000160861)
(-0.00818778 -0.00300436 -0.000188142)
(-0.00653207 -0.00393871 -0.000205361)
(-0.00452551 -0.00458769 -0.000199918)
(-0.00218299 -0.00456483 -0.000163869)
(-0.000453122 -0.00284604 -3.11152e-05)
(-0.000171271 0.00269067 -0.000145556)
(-0.00100789 0.00447331 -0.000125667)
(-0.00228624 0.00492094 -0.000112332)
(-0.00353316 0.00493402 -9.85753e-05)
(-0.00479007 0.00480116 -8.92111e-05)
(-0.00601422 0.00458997 -8.2507e-05)
(-0.00718646 0.00430414 -7.77387e-05)
(-0.00828704 0.00393128 -7.54325e-05)
(-0.00929029 0.00345337 -7.65315e-05)
(-0.0101629 0.00284924 -8.21412e-05)
(-0.0108615 0.00209674 -9.33979e-05)
(-0.011331 0.00117647 -0.000111466)
(-0.0115023 7.75343e-05 -0.000137144)
(-0.011295 -0.00119142 -0.000170892)
(-0.0106224 -0.0026002 -0.000209385)
(-0.00940674 -0.00406716 -0.000247877)
(-0.00761156 -0.00544092 -0.00027466)
(-0.00534053 -0.00643155 -0.000272604)
(-0.00260467 -0.00646587 -0.00023048)
(-0.000546572 -0.0040702 -6.54277e-05)
(-0.000170066 0.00351301 -0.000163612)
(-0.00103694 0.00582074 -0.000146221)
(-0.00237382 0.00639631 -0.000133276)
(-0.00367923 0.00641434 -0.000119197)
(-0.00500238 0.00625003 -0.000109633)
(-0.00630172 0.00599163 -0.000102941)
(-0.00756263 0.00564528 -9.85186e-05)
(-0.00877009 0.00519616 -9.70604e-05)
(-0.00990274 0.00462113 -9.97374e-05)
(-0.0109302 0.00389115 -0.000108018)
(-0.011809 0.00297326 -0.000123557)
(-0.0124788 0.00183461 -0.000148087)
(-0.0128574 0.000449714 -0.000182997)
(-0.0128411 -0.00118926 -0.000230987)
(-0.0123025 -0.00305747 -0.000286955)
(-0.0111092 -0.00506206 -0.00034552)
(-0.00916469 -0.00700377 -0.000390863)
(-0.00654686 -0.00847425 -0.000398004)
(-0.0032544 -0.00864842 -0.000348169)
(-0.000701654 -0.00549996 -0.000133087)
(-0.00016884 0.00438272 -0.000184849)
(-0.00107182 0.00725671 -0.000170417)
(-0.00247753 0.0079721 -0.00015799)
(-0.00385022 0.00800042 -0.000143599)
(-0.00524828 0.0078119 -0.000133857)
(-0.00663191 0.00751836 -0.000127283)
(-0.00799268 0.00712971 -0.000123471)
(-0.0093225 0.00662944 -0.000123367)
(-0.0106072 0.0059894 -0.000128476)
(-0.0118231 0.00517156 -0.000140771)
(-0.0129306 0.0041289 -0.000162677)
(-0.013867 0.00280869 -0.000196894)
(-0.0145386 0.00116046 -0.000245827)
(-0.0148164 -0.000851223 -0.000316951)
(-0.0145212 -0.00322543 -0.000402474)
(-0.01344 -0.00587808 -0.000496884)
(-0.0113762 -0.00856482 -0.000578474)
(-0.0083332 -0.0107309 -0.000609278)
(-0.00427441 -0.0111956 -0.000552724)
(-0.000969812 -0.00723398 -0.000262658)
(-0.00016744 0.00531015 -0.000211058)
(-0.00111291 0.00879892 -0.000200565)
(-0.00259768 0.00966636 -0.000188723)
(-0.00404402 0.00970863 -0.000173715)
(-0.00552152 0.00950187 -0.0001634)
(-0.00699268 0.00918536 -0.000156586)
(-0.00845715 0.00877504 -0.000153178)
(-0.00991645 0.00825442 -0.000154494)
(-0.0113675 0.00759164 -0.000162531)
(-0.0127985 0.00674003 -0.000180022)
(-0.0141807 0.00563679 -0.000210616)
(-0.015457 0.00420343 -0.000258771)
(-0.0165284 0.0023514 -0.000330279)
(-0.0172421 -2.60827e-06 -0.000434402)
(-0.0173628 -0.00289979 -0.000569753)
(-0.016569 -0.00631144 -0.000727866)
(-0.0145034 -0.00996997 -0.000880434)
(-0.011 -0.0131563 -0.000969114)
(-0.00593572 -0.0141823 -0.000918351)
(-0.00146492 -0.00942946 -0.000522632)
(-0.0001663 0.00630858 -0.000244028)
(-0.00116199 0.0104686 -0.00023899)
(-0.00273596 0.0114984 -0.000227665)
(-0.00425907 0.0115538 -0.000211314)
(-0.0058147 0.0113305 -0.000199495)
(-0.0073683 0.0110005 -0.000191497)
(-0.00892951 0.010589 -0.000187699)
(-0.0105124 0.0100825 -0.000189935)
(-0.0121293 0.00944882 -0.000200889)
(-0.0137871 0.00863537 -0.000224397)
(-0.015478 0.00756513 -0.000265968)
(-0.0171651 0.00613181 -0.00033325)
(-0.0187601 0.00419871 -0.00043645)
(-0.0200898 0.00161062 -0.000586092)
(-0.0208807 -0.00177061 -0.000805637)
(-0.0206869 -0.00599951 -0.00107582)
(-0.0189083 -0.0108779 -0.0013664)
(-0.0150443 -0.0155414 -0.00159092)
(-0.00878602 -0.0176155 -0.00160023)
(-0.0024486 -0.0123308 -0.00108203)
(-0.00016733 0.00739699 -0.000286223)
(-0.001225 0.012293 -0.00028878)
(-0.0028999 0.0134901 -0.00027763)
(-0.00449954 0.0135491 -0.000258542)
(-0.00612508 0.0133026 -0.000243477)
(-0.00774548 0.0129616 -0.000232481)
(-0.00938225 0.0125648 -0.000226626)
(-0.0110645 0.0121065 -0.000228421)
(-0.0128242 0.0115594 -0.00024144)
(-0.0146936 0.0108724 -0.000270991)
(-0.0166982 0.00996157 -0.000325215)
(-0.0188408 0.00869883 -0.000416452)
(-0.0210722 0.00689908 -0.000561737)
(-0.0232461 0.00431402 -0.000782295)
(-0.0250545 0.000651452 -0.00111788)
(-0.0259509 -0.00431574 -0.00158244)
(-0.0250634 -0.010588 -0.0021352)
(-0.021289 -0.0172903 -0.00266575)
(-0.013925 -0.0212641 -0.00291622)
(-0.00450174 -0.0163287 -0.00239416)
(-0.00017536 0.00860563 -0.000341577)
(-0.00131579 0.0143106 -0.000354588)
(-0.0031078 0.0156688 -0.000342735)
(-0.00478066 0.015707 -0.0003184)
(-0.0064599 0.015416 -0.000297055)
(-0.00811904 0.0150536 -0.000279905)
(-0.00979288 0.0146765 -0.000268998)
(-0.0115269 0.014292 -0.000267651)
(-0.0133743 0.013886 -0.000280479)
(-0.0153982 0.0134203 -0.000314542)
(-0.0176682 0.012821 -0.000381257)
(-0.0202496 0.0119573 -0.000499237)
(-0.0231764 0.0106122 -0.000697639)
(-0.0263925 0.00844751 -0.00101794)
(-0.0296492 0.00499168 -0.00150816)
(-0.0323876 -0.000310973 -0.0022659)
(-0.0334942 -0.00782851 -0.00327525)
(-0.0310129 -0.0169965 -0.00442187)
(-0.0234147 -0.0241977 -0.00537621)
(-0.00887036 -0.022048 -0.00544651)
(-0.000201144 0.00998653 -0.000416948)
(-0.00146258 0.0165796 -0.000443936)
(-0.00339604 0.0180718 -0.000429516)
(-0.00513573 0.0180398 -0.000395447)
(-0.00684321 0.0176605 -0.000362615)
(-0.00849894 0.017246 -0.000334073)
(-0.0101523 0.0168747 -0.0003132)
(-0.0118642 0.0165713 -0.000304117)
(-0.0137065 0.0163437 -0.000312462)
(-0.0157716 0.0161831 -0.000347097)
(-0.0181782 0.0160516 -0.000423064)
(-0.0210738 0.0158568 -0.000566311)
(-0.0246222 0.0154067 -0.000820485)
(-0.0289533 0.0143381 -0.00125218)
(-0.0340584 0.0120303 -0.0019463)
(-0.0395815 0.00752088 -0.00299422)
(-0.0443902 -0.000371406 -0.00458965)
(-0.0455877 -0.0120335 -0.00664946)
(-0.0401473 -0.0245965 -0.00892485)
(-0.0176171 -0.0308731 -0.0107784)
(-0.00026812 0.0116291 -0.000524838)
(-0.00172049 0.0191819 -0.0005683)
(-0.00383116 0.0207374 -0.000546588)
(-0.00562638 0.020549 -0.000494598)
(-0.00732423 0.0200107 -0.000442041)
(-0.00891813 0.0194902 -0.000394337)
(-0.0104742 0.0190839 -0.000356214)
(-0.0120642 0.0188368 -0.000332256)
(-0.0137693 0.0187865 -0.000328953)
(-0.0156979 0.0189693 -0.000356196)
(-0.0180041 0.0194144 -0.000431178)
(-0.0209091 0.0201217 -0.00058415)
(-0.0247273 0.0210164 -0.000866248)
(-0.0298719 0.0218396 -0.00135218)
(-0.0368399 0.0219831 -0.00212575)
(-0.0460504 0.0201075 -0.0032659)
(-0.0567562 0.0137811 -0.00488731)
(-0.0649341 -0.000710112 -0.00680746)
(-0.0651778 -0.0241281 -0.00875033)
(-0.0314417 -0.0501773 -0.0136063)
(-0.000431786 0.0137171 -0.00069545)
(-0.00220717 0.0223368 -0.000765998)
(-0.00453299 0.0238682 -0.000733686)
(-0.00634873 0.023406 -0.000648892)
(-0.00797565 0.0225712 -0.000556092)
(-0.00943458 0.0218112 -0.000468813)
(-0.0108055 0.0212546 -0.000396305)
(-0.0121587 0.0209703 -0.000344828)
(-0.0135687 0.0210276 -0.000319658)
(-0.0151359 0.0215175 -0.000329639)
(-0.0170148 0.0225661 -0.000390651)
(-0.0194566 0.0243259 -0.000528972)
(-0.0228905 0.0269583 -0.00078023)
(-0.0280157 0.0304675 -0.00115492)
(-0.03602 0.0344174 -0.00153472)
(-0.0485459 0.0367677 -0.00153117)
(-0.0667627 0.0326713 -0.000581917)
(-0.0861138 0.0102957 0.00244841)
(-0.0960913 -0.0368104 0.00624849)
(-0.0463217 -0.0981374 -0.0048395)
(-0.000746254 0.0166732 -0.000957288)
(-0.00299162 0.0258375 -0.00100266)
(-0.00559904 0.0268955 -0.000927648)
(-0.00744503 0.0258087 -0.000776124)
(-0.00898102 0.0245685 -0.000630067)
(-0.0102254 0.0235849 -0.000498419)
(-0.0112922 0.0229181 -0.000388371)
(-0.0122592 0.0225958 -0.000303884)
(-0.0131789 0.0226901 -0.000248698)
(-0.0141015 0.0233337 -0.000228676)
(-0.0151155 0.0247633 -0.000249793)
(-0.0163941 0.0273092 -0.000313159)
(-0.0183641 0.0314477 -0.000385809)
(-0.0219171 0.0374534 -0.000254952)
(-0.029241 0.0451726 0.000788036)
(-0.0439581 0.0510104 0.00435823)
(-0.0725061 0.0464651 0.012288)
(-0.107995 0.00494646 0.0242601)
(-0.127312 -0.08896 0.0306116)
(-0.0531472 -0.189904 0.00238491)
(-0.00206175 0.019828 -0.00150009)
(-0.00551631 0.0314957 -0.00165597)
(-0.0078318 0.0321875 -0.00149062)
(-0.00926863 0.0306148 -0.001217)
(-0.0102636 0.0285507 -0.000917344)
(-0.0110461 0.0267464 -0.000645141)
(-0.0117048 0.0253546 -0.000418194)
(-0.0122431 0.0244414 -0.000243192)
(-0.0126265 0.0240905 -0.000120609)
(-0.0127913 0.0244273 -4.91805e-05)
(-0.0126898 0.0257448 -2.50635e-05)
(-0.012294 0.028455 -4.64085e-06)
(-0.0119416 0.033378 0.000166069)
(-0.0123586 0.0408199 0.00103996)
(-0.0170016 0.0516098 0.00409812)
(-0.03111 0.058897 0.012506)
(-0.0692864 0.0495634 0.0280977)
(-0.116862 -0.0303221 0.0433272)
(-0.141943 -0.183247 0.0355511)
(-0.0508644 -0.294285 -0.0145377)
(-0.00136052 0.0314081 -0.00254108)
(-0.00542009 0.0354098 -0.00225636)
(-0.00980114 0.0338543 -0.00190202)
(-0.0114662 0.0301283 -0.00130021)
(-0.0126438 0.0274705 -0.000813134)
(-0.0129736 0.0255489 -0.000392544)
(-0.0128853 0.0242069 -5.81075e-05)
(-0.0124954 0.0233032 0.00018727)
(-0.0118251 0.0228633 0.000343151)
(-0.0107423 0.0229258 0.000424719)
(-0.00908294 0.023841 0.000448575)
(-0.00643596 0.0258421 0.000492365)
(-0.00307182 0.0300443 0.000786152)
(0.00164741 0.0365143 0.00221133)
(0.00265944 0.0470877 0.00641256)
(-0.00135328 0.0532307 0.0174863)
(-0.0375399 0.034959 0.0355358)
(-0.0821502 -0.077625 0.0442742)
(-0.125648 -0.252962 0.0194856)
(-0.0456063 -0.367585 -0.0409084)
(-0.0123317 0.0293441 -0.00342375)
(-0.0213939 0.0510427 -0.00399863)
(-0.0163253 0.0468422 -0.00350583)
(-0.015963 0.0419966 -0.00256668)
(-0.0134099 0.0363215 -0.00147891)
(-0.0107701 0.0316625 -0.000562785)
(-0.00810327 0.0280107 0.000145289)
(-0.00544387 0.025224 0.000627001)
(-0.00277872 0.0232257 0.000920117)
(0.000265381 0.0218293 0.00104589)
(0.00368233 0.0212282 0.00102077)
(0.0084805 0.0213906 0.000905712)
(0.0140578 0.0232496 0.000952204)
(0.0230706 0.0266531 0.0016829)
(0.0296227 0.0337328 0.00508923)
(0.0421776 0.0386131 0.013978)
(0.0251109 0.0229982 0.0277663)
(0.0125338 -0.0879552 0.0334645)
(-0.0717944 -0.262432 0.0066797)
(-0.0237516 -0.402058 -0.0572894)
(-0.046372 0.0887858 -0.012096)
(-0.0299642 0.0418074 -0.00800655)
(-0.0209318 0.0355488 -0.00549654)
(-0.00293152 0.0285208 -0.00310721)
(0.0119886 0.0222656 -0.00142202)
(0.0263781 0.0181712 -0.000142486)
(0.0385863 0.0155959 0.000813753)
(0.0493877 0.0136877 0.00145242)
(0.0583134 0.0124546 0.00188403)
(0.0668631 0.0114014 0.00206087)
(0.0736983 0.0110493 0.00204202)
(0.0823096 0.0106457 0.00172471)
(0.0884415 0.0112192 0.00130756)
(0.102174 0.0111502 0.000790013)
(0.107229 0.0109622 0.00136246)
(0.136506 0.00502348 0.00508105)
(0.121532 -0.0136624 0.00981986)
(0.156709 -0.0902759 0.0180616)
(0.031164 -0.237859 0.000368956)
(0.030455 -0.371788 -0.0675814)
(0.117639 0.111892 -0.0112321)
(0.144199 0.0595886 -0.0117346)
(0.216432 0.0393709 -0.0113217)
(0.260851 0.0262436 -0.00994523)
(0.293391 0.017468 -0.00830969)
(0.320252 0.0116146 -0.00691694)
(0.340704 0.00795616 -0.00557065)
(0.359105 0.00557528 -0.00446269)
(0.371599 0.00414219 -0.00345032)
(0.386237 0.0031529 -0.00252893)
(0.39254 0.00268531 -0.00197942)
(0.40768 0.00234124 -0.00118162)
(0.406983 0.00239939 -0.00111838)
(0.427864 0.00215336 -0.000592874)
(0.415493 0.00176261 -0.000522503)
(0.445966 -0.00121014 0.000130565)
(0.403958 -0.00940752 0.00101956)
(0.424164 -0.032119 0.000521301)
(0.255459 -0.075051 -0.00832699)
(0.165223 -0.139877 -0.0772773)
(-9.57025e-05 0.000106368 -5.90627e-05)
(-0.000738276 0.000303417 -1.10909e-05)
(-0.00179189 0.000360704 1.07561e-05)
(-0.00281492 0.000368222 2.23844e-05)
(-0.00383222 0.000362189 2.33171e-05)
(-0.00480691 0.00035132 1.70157e-05)
(-0.00571921 0.000335061 5.18139e-06)
(-0.00654806 0.000310978 -1.20852e-05)
(-0.00726634 0.000276683 -3.5496e-05)
(-0.00784179 0.000229281 -6.51837e-05)
(-0.0082381 0.000166378 -0.000101257)
(-0.00841587 8.68164e-05 -0.000143468)
(-0.00833436 -1.05456e-05 -0.000191213)
(-0.00795548 -0.000123947 -0.000242214)
(-0.00725148 -0.000248248 -0.000293192)
(-0.00621158 -0.000374699 -0.000338257)
(-0.00485529 -0.000487723 -0.000367857)
(-0.00327463 -0.000557962 -0.000368945)
(-0.00148891 -0.000521489 -0.000331607)
(-0.000265416 -0.000227795 -0.000180703)
(-0.000304388 0.000796857 -0.000164246)
(-0.00158637 0.00160689 -0.000131754)
(-0.00348156 0.00182998 -0.000107895)
(-0.00532012 0.00183938 -8.7769e-05)
(-0.00712414 0.00177768 -7.74374e-05)
(-0.00882763 0.00168082 -7.40613e-05)
(-0.0103906 0.00155068 -7.61047e-05)
(-0.0117741 0.00138156 -8.37896e-05)
(-0.0129341 0.00116667 -9.79418e-05)
(-0.0138214 0.000898686 -0.000119427)
(-0.0143824 0.00057148 -0.000148893)
(-0.0145623 0.000180911 -0.00018651)
(-0.0143065 -0.000271177 -0.000233135)
(-0.0135641 -0.000773421 -0.000283827)
(-0.0123019 -0.00130497 -0.000335519)
(-0.0105123 -0.00183023 -0.000381169)
(-0.00823451 -0.00228877 -0.000408596)
(-0.00560771 -0.00256658 -0.000402344)
(-0.00267224 -0.00242192 -0.000351134)
(-0.000554997 -0.00127995 -0.000160005)
(-0.000379058 0.00195922 -0.000219025)
(-0.00190658 0.00360972 -0.000196296)
(-0.00412611 0.00404583 -0.000172019)
(-0.00626772 0.00403917 -0.000147475)
(-0.00836032 0.00387669 -0.000131962)
(-0.0103295 0.00363112 -0.000122973)
(-0.012131 0.00330982 -0.000119223)
(-0.0137219 0.00290507 -0.000121285)
(-0.0150545 0.00240595 -0.000130372)
(-0.016076 0.00180115 -0.000147838)
(-0.0167292 0.00108117 -0.000174871)
(-0.0169523 0.000240657 -0.000212332)
(-0.0166791 -0.000715624 -0.000259909)
(-0.0158491 -0.00176757 -0.000314905)
(-0.0144186 -0.00287313 -0.000373143)
(-0.0123679 -0.00396059 -0.00042638)
(-0.00973027 -0.00490881 -0.000459784)
(-0.00665936 -0.00548794 -0.000454363)
(-0.00319568 -0.00521412 -0.000396593)
(-0.000672096 -0.00293394 -0.000175568)
(-0.000403157 0.00316097 -0.000263385)
(-0.0020378 0.00569214 -0.000250491)
(-0.00441125 0.00634234 -0.000226746)
(-0.00669604 0.00631398 -0.000199488)
(-0.00893137 0.00604774 -0.000180625)
(-0.0110411 0.0056538 -0.000167974)
(-0.0129823 0.00514442 -0.000160547)
(-0.0147136 0.00450941 -0.000159346)
(-0.0161873 0.00373307 -0.000166038)
(-0.0173496 0.00279826 -0.000182481)
(-0.0181391 0.00168963 -0.000210436)
(-0.0184873 0.000398624 -0.000251525)
(-0.0183164 -0.00107127 -0.000308057)
(-0.0175439 -0.00269745 -0.000373887)
(-0.0160978 -0.00442146 -0.000446491)
(-0.0139298 -0.00613644 -0.000515565)
(-0.0110489 -0.00765393 -0.000562679)
(-0.00761595 -0.00860763 -0.000563434)
(-0.00367088 -0.00822931 -0.000499334)
(-0.000771445 -0.00470567 -0.000234024)
(-0.000416764 0.00443974 -0.000303297)
(-0.00213384 0.00791398 -0.000299683)
(-0.0046364 0.00879148 -0.000276728)
(-0.00704544 0.00874287 -0.000247769)
(-0.00941086 0.00837367 -0.000227067)
(-0.0116568 0.00783406 -0.000212746)
(-0.0137443 0.00714173 -0.000204131)
(-0.0156358 0.00628378 -0.000202656)
(-0.0172863 0.00523876 -0.00021055)
(-0.0186424 0.00398137 -0.000230426)
(-0.0196388 0.00248628 -0.000264946)
(-0.020196 0.000734125 -0.000316702)
(-0.0202191 -0.00127915 -0.000387258)
(-0.0195968 -0.00353467 -0.000475828)
(-0.0182141 -0.00596506 -0.000575862)
(-0.0159715 -0.00842994 -0.000675494)
(-0.0128279 -0.0106617 -0.000750262)
(-0.00893866 -0.0121201 -0.000765697)
(-0.00434555 -0.0116782 -0.000693459)
(-0.000918557 -0.00673954 -0.000354799)
(-0.000432345 0.00578794 -0.000345732)
(-0.00224332 0.0102719 -0.000351799)
(-0.00489429 0.0113937 -0.000329848)
(-0.00744769 0.0113294 -0.000299627)
(-0.00996515 0.0108626 -0.0002778)
(-0.012372 0.010187 -0.000262854)
(-0.0146357 0.00932658 -0.000254514)
(-0.0167247 0.00826566 -0.000254748)
(-0.0185997 0.00697581 -0.000266484)
(-0.0202103 0.00542077 -0.000293327)
(-0.0214896 0.00355997 -0.000339288)
(-0.0223485 0.00135526 -0.000408572)
(-0.022672 -0.00121805 -0.000504529)
(-0.0223101 -0.00416057 -0.0006296)
(-0.0210855 -0.00740833 -0.000775623)
(-0.0188194 -0.0107947 -0.000928617)
(-0.0153817 -0.0139596 -0.00105504)
(-0.0108891 -0.0161371 -0.00110294)
(-0.00537961 -0.0157182 -0.00102283)
(-0.00116018 -0.00915165 -0.000567813)
(-0.000452488 0.00722002 -0.000396091)
(-0.00237796 0.0127915 -0.000413615)
(-0.00520706 0.0141768 -0.000392833)
(-0.00793155 0.0141013 -0.000361109)
(-0.010627 0.013543 -0.000337916)
(-0.013221 0.0127437 -0.000322264)
(-0.0156896 0.0117353 -0.000314457)
(-0.0180111 0.0105 -0.000317203)
(-0.0201564 0.00900167 -0.000334409)
(-0.0220833 0.00719032 -0.000371086)
(-0.0237286 0.00500409 -0.000433289)
(-0.0249974 0.00237527 -0.0005279)
(-0.0257579 -0.000758324 -0.000661679)
(-0.0258153 -0.0044335 -0.000843847)
(-0.0249099 -0.00862312 -0.00106519)
(-0.0227444 -0.0131556 -0.00131049)
(-0.019037 -0.0175741 -0.00153352)
(-0.0137891 -0.0208202 -0.00165333)
(-0.00701062 -0.0206027 -0.00157368)
(-0.00157853 -0.0121636 -0.000939657)
(-0.000477707 0.00875621 -0.000458487)
(-0.00254108 0.015507 -0.000490456)
(-0.00558029 0.0171759 -0.000470782)
(-0.00850104 0.0170907 -0.000436535)
(-0.011396 0.0164443 -0.00041072)
(-0.0141962 0.0155332 -0.000393135)
(-0.0168897 0.0143999 -0.000384927)
(-0.0194691 0.0130265 -0.000389819)
(-0.0219212 0.0113699 -0.000413076)
(-0.0242208 0.00936525 -0.000461734)
(-0.0263187 0.00692433 -0.000544956)
(-0.0281261 0.00393785 -0.000673999)
(-0.0294984 0.000284493 -0.000861604)
(-0.0302039 -0.00413697 -0.0011286)
(-0.0298901 -0.00938586 -0.00147166)
(-0.0280888 -0.0153369 -0.0018752)
(-0.0242759 -0.0214601 -0.00227916)
(-0.0181845 -0.0263365 -0.00255728)
(-0.00972672 -0.0266902 -0.00251388)
(-0.00236738 -0.0161835 -0.00161586)
(-0.000509298 0.0104197 -0.000537381)
(-0.00273744 0.0184567 -0.000588072)
(-0.00602033 0.0204261 -0.00056902)
(-0.00915903 0.0203256 -0.000530166)
(-0.0122677 0.0195884 -0.000499136)
(-0.0152821 0.0185735 -0.00047691)
(-0.0182059 0.0173391 -0.000465823)
(-0.0210516 0.0158703 -0.000470935)
(-0.0238297 0.0141208 -0.000499299)
(-0.0265429 0.0120123 -0.000560724)
(-0.0291723 0.00942881 -0.000668882)
(-0.0316562 0.00621084 -0.000842007)
(-0.0338567 0.00215745 -0.00110409)
(-0.0355289 -0.00295047 -0.0014877)
(-0.0362388 -0.00931888 -0.00202469)
(-0.0353071 -0.0169684 -0.00269532)
(-0.031855 -0.0253886 -0.00343576)
(-0.0250852 -0.0327719 -0.00405758)
(-0.0146343 -0.0344865 -0.00417785)
(-0.00401827 -0.0220742 -0.00293523)
(-0.000550762 0.0122402 -0.000638883)
(-0.00297783 0.0216851 -0.000714077)
(-0.00654173 0.0239645 -0.000694387)
(-0.00991616 0.0238301 -0.000647223)
(-0.0132431 0.0229875 -0.000606422)
(-0.0164647 0.0218686 -0.000574711)
(-0.0196044 0.0205524 -0.000556056)
(-0.0226999 0.0190338 -0.000557181)
(-0.0257939 0.0172694 -0.000587326)
(-0.0289301 0.015175 -0.000659854)
(-0.0321408 0.0126125 -0.00079468)
(-0.035423 0.00937262 -0.0010213)
(-0.0386954 0.00515736 -0.00138124)
(-0.0417505 -0.000425605 -0.0019258)
(-0.0441269 -0.00779868 -0.00273453)
(-0.0449683 -0.0173203 -0.00384278)
(-0.0429614 -0.0286985 -0.00519165)
(-0.0364201 -0.0398574 -0.00653503)
(-0.0242747 -0.0446368 -0.00720532)
(-0.00780255 -0.0318278 -0.00573101)
(-0.000609751 0.0142606 -0.00077237)
(-0.00328411 0.0252498 -0.000879617)
(-0.00717415 0.0278319 -0.000856631)
(-0.010798 0.027624 -0.000794879)
(-0.014336 0.0266424 -0.000736768)
(-0.0177388 0.0254032 -0.00068757)
(-0.0210539 0.0240134 -0.000653443)
(-0.0243489 0.022485 -0.000643003)
(-0.0277051 0.0207882 -0.000667852)
(-0.0312195 0.0188472 -0.000745231)
(-0.0349989 0.0165196 -0.000902225)
(-0.0391435 0.0135626 -0.0011819)
(-0.0437066 0.00958509 -0.00165006)
(-0.0486064 0.004 -0.00240139)
(-0.0535403 -0.0039534 -0.00357365)
(-0.0576801 -0.0150863 -0.00531358)
(-0.0593238 -0.0297994 -0.00764578)
(-0.055549 -0.0462898 -0.0102916)
(-0.0435448 -0.0576986 -0.012307)
(-0.0164542 -0.0499051 -0.0114964)
(-0.000701812 0.0165487 -0.000953196)
(-0.00369746 0.0292314 -0.00110205)
(-0.00797193 0.0320803 -0.00107078)
(-0.0118542 0.0317254 -0.000983904)
(-0.0155812 0.0305406 -0.00089614)
(-0.0191166 0.0291393 -0.000816687)
(-0.0225362 0.0276628 -0.000754648)
(-0.0259393 0.0261477 -0.00072049)
(-0.0294477 0.024591 -0.000727879)
(-0.0332174 0.0229475 -0.000797519)
(-0.0374491 0.0211053 -0.000963556)
(-0.0423929 0.0188378 -0.00128381)
(-0.0483317 0.0157244 -0.00185416)
(-0.0555115 0.0110396 -0.00281869)
(-0.0640105 0.00365348 -0.00435829)
(-0.0735692 -0.00794109 -0.00671647)
(-0.082491 -0.0254551 -0.0100574)
(-0.0859083 -0.0491331 -0.0139288)
(-0.0768052 -0.0744658 -0.0172988)
(-0.0315211 -0.0865251 -0.0191628)
(-0.000857383 0.0192062 -0.00120704)
(-0.00429045 0.0337134 -0.00140583)
(-0.00902758 0.0367235 -0.00135488)
(-0.0131717 0.0360979 -0.00122498)
(-0.0170469 0.03462 -0.00108935)
(-0.0206385 0.032997 -0.000961687)
(-0.0240566 0.0313976 -0.00085404)
(-0.0274306 0.0298882 -0.000778157)
(-0.0309147 0.0285077 -0.000749024)
(-0.0347139 0.0272686 -0.000788489)
(-0.0391177 0.0261368 -0.000933128)
(-0.0445426 0.0249824 -0.00124637)
(-0.05158 0.0234837 -0.00183418)
(-0.0610206 0.0209583 -0.00284605)
(-0.0738512 0.0161339 -0.00441683)
(-0.0908751 0.00658725 -0.00650601)
(-0.110084 -0.0122258 -0.00862626)
(-0.122385 -0.0478243 -0.00917425)
(-0.115227 -0.103104 -0.00866919)
(-0.0430416 -0.159063 -0.0177429)
(-0.00115615 0.0224603 -0.00159068)
(-0.00524239 0.0390649 -0.00186834)
(-0.0105178 0.0421454 -0.00178904)
(-0.0148747 0.0410921 -0.00158592)
(-0.0188105 0.0391113 -0.00136028)
(-0.0223551 0.0370656 -0.00114174)
(-0.0256467 0.035185 -0.000951367)
(-0.0288259 0.0335767 -0.0008039)
(-0.0320586 0.0323274 -0.000711832)
(-0.0355727 0.0315284 -0.00069304)
(-0.0397106 0.0312841 -0.000777035)
(-0.0450159 0.0316759 -0.00100981)
(-0.0523646 0.0326865 -0.00144452)
(-0.0630887 0.0339494 -0.00204259)
(-0.0790973 0.0341738 -0.0023387)
(-0.101971 0.0290074 -0.00078741)
(-0.128424 0.00745407 0.00559769)
(-0.143928 -0.0517003 0.0191403)
(-0.136888 -0.153204 0.0279146)
(-0.0377853 -0.259179 -0.00300517)
(-0.00157767 0.0266878 -0.00214698)
(-0.00642172 0.0444933 -0.00241585)
(-0.0124846 0.0469971 -0.00225265)
(-0.0171558 0.0450615 -0.00191682)
(-0.0211742 0.0425651 -0.00157834)
(-0.0245509 0.0402532 -0.00125673)
(-0.0275138 0.0382553 -0.000971503)
(-0.0302429 0.0366359 -0.000734375)
(-0.0328965 0.0355064 -0.000554473)
(-0.0356577 0.0350447 -0.000440472)
(-0.0388156 0.0355367 -0.000393867)
(-0.042877 0.0373672 -0.000388399)
(-0.0487691 0.0409987 -0.00028767)
(-0.0580068 0.0464207 0.000517087)
(-0.0730093 0.0520396 0.00397483)
(-0.0954229 0.0499983 0.0144676)
(-0.123449 0.0227223 0.036967)
(-0.1388 -0.0624515 0.0650326)
(-0.136886 -0.207591 0.0648719)
(-0.0236308 -0.349731 -0.00207003)
(-0.00364028 0.0308222 -0.00316315)
(-0.0105969 0.0536458 -0.00367211)
(-0.0162323 0.05585 -0.00336158)
(-0.0204206 0.0532488 -0.00281839)
(-0.0237725 0.0494213 -0.00219894)
(-0.0266597 0.045834 -0.00160777)
(-0.0291879 0.0427644 -0.00108521)
(-0.0314173 0.0403347 -0.000650487)
(-0.0333867 0.0386701 -0.000307322)
(-0.0351435 0.0379774 -4.96062e-05)
(-0.0367976 0.0386719 0.000154001)
(-0.0385772 0.0413686 0.000446709)
(-0.0411451 0.0470531 0.00127571)
(-0.0454488 0.0558505 0.00403974)
(-0.0538685 0.0659983 0.0122472)
(-0.0674151 0.0655026 0.0321888)
(-0.0913727 0.0356816 0.0663457)
(-0.104387 -0.0713291 0.0931541)
(-0.115014 -0.254083 0.0642827)
(-0.00708228 -0.424336 -0.0229045)
(-0.00171808 0.0456134 -0.00505365)
(-0.00915895 0.0574268 -0.00500648)
(-0.0193988 0.0566745 -0.00431172)
(-0.0241808 0.0515742 -0.0032059)
(-0.0282571 0.0477439 -0.00226671)
(-0.030731 0.0446057 -0.00139718)
(-0.032329 0.0420246 -0.000646995)
(-0.0332575 0.0398811 -2.90835e-05)
(-0.0336186 0.0383039 0.000453473)
(-0.0333645 0.0374566 0.000811923)
(-0.0324193 0.0378778 0.00110507)
(-0.0304804 0.0400648 0.00157443)
(-0.0277115 0.0454656 0.00284938)
(-0.0233618 0.0537563 0.0068043)
(-0.0205522 0.0650457 0.016946)
(-0.0153177 0.0656336 0.0393795)
(-0.029114 0.0380237 0.0731166)
(-0.0313979 -0.0752481 0.0877065)
(-0.06466 -0.27637 0.0415947)
(0.0199785 -0.471663 -0.0443231)
(-0.012116 0.0370162 -0.0062746)
(-0.0252612 0.080045 -0.00756333)
(-0.0248859 0.0771105 -0.00695758)
(-0.0308947 0.0708717 -0.00542946)
(-0.0322153 0.0628624 -0.00356013)
(-0.0319561 0.0558578 -0.00188346)
(-0.0302575 0.0499691 -0.000501574)
(-0.0276078 0.0451201 0.000553132)
(-0.0242567 0.0413127 0.00131814)
(-0.0200542 0.0383433 0.00180039)
(-0.0153068 0.0366049 0.00204019)
(-0.00891828 0.036148 0.00225012)
(-0.00190895 0.0384936 0.00295711)
(0.00983121 0.0431304 0.00548325)
(0.0208493 0.0524118 0.0127387)
(0.0445065 0.0556993 0.0290563)
(0.0471416 0.0402062 0.0496846)
(0.0799818 -0.0521912 0.0606942)
(0.0227585 -0.260235 0.0217337)
(0.0696765 -0.471923 -0.0600172)
(-0.0758052 0.101034 -0.0183792)
(-0.0613076 0.0624255 -0.013359)
(-0.0607805 0.0606373 -0.00965547)
(-0.0393238 0.0524621 -0.00622325)
(-0.0209623 0.0443866 -0.00374416)
(-0.000939773 0.0384017 -0.00167929)
(0.0175406 0.0340416 1.42693e-05)
(0.0354074 0.030316 0.00134203)
(0.0512268 0.0275976 0.00239794)
(0.0673328 0.0249381 0.00306478)
(0.0803944 0.0234659 0.0033773)
(0.0963642 0.0218645 0.00319408)
(0.106706 0.0218572 0.00292476)
(0.128139 0.0221227 0.00261698)
(0.135346 0.0217358 0.00346296)
(0.177685 0.0185714 0.0105789)
(0.172744 -0.00803454 0.0144275)
(0.2318 -0.065295 0.021226)
(0.159995 -0.238275 0.00714835)
(0.149488 -0.420605 -0.072828)
(0.119356 0.139977 -0.0165719)
(0.151507 0.0856673 -0.017867)
(0.229503 0.0633702 -0.0175733)
(0.28387 0.0479895 -0.0159887)
(0.325229 0.0370674 -0.0139704)
(0.362759 0.029029 -0.0121365)
(0.391543 0.0233434 -0.0103526)
(0.421751 0.0190965 -0.00870892)
(0.440982 0.0160791 -0.00722499)
(0.468449 0.013636 -0.00577654)
(0.479265 0.0118645 -0.00459308)
(0.507634 0.0106032 -0.00363601)
(0.509959 0.00934265 -0.00250868)
(0.542646 0.00906807 -0.00246133)
(0.534395 0.00733475 -0.000736378)
(0.572526 0.00553505 -0.00164164)
(0.542722 -0.00343214 0.00194033)
(0.562408 -0.0241205 -0.00411427)
(0.433594 -0.0702634 -0.00757357)
(0.303769 -0.14847 -0.0839865)
(-0.000107126 0.000107901 -8.32039e-05)
(-0.000834453 0.000337707 -7.3661e-05)
(-0.00202641 0.000404721 -5.98083e-05)
(-0.00317684 0.00041228 -4.91931e-05)
(-0.00431341 0.00040307 -4.63336e-05)
(-0.00539516 0.000387781 -4.99988e-05)
(-0.00640084 0.00036608 -5.94735e-05)
(-0.00730746 0.000335379 -7.48628e-05)
(-0.00808627 0.00029289 -9.63458e-05)
(-0.00870336 0.000235857 -0.000124683)
(-0.00912016 0.000161969 -0.000160267)
(-0.00929503 7.02157e-05 -0.000202986)