/*--------------------------------*- C++ -*----------------------------------*\
  =========                 |
  \\      /  F ield         | OpenFOAM: The Open Source CFD Toolbox
   \\    /   O peration     | Website:  https://openfoam.org
    \\  /    A nd           | Version:  10
     \\/     M anipulation  |
\*---------------------------------------------------------------------------*/
FoamFile
{
    format      ascii;
    class       volScalarField;
    location    "8";
    object      p;
}
// * * * * * * * * * * * * * * * * * * * * * * * * * * * * * * * * * * * * * //

dimensions      [0 2 -2 0 0 0 0];

internalField   nonuniform List<scalar> 
475
(
-0.0525791
-0.0779462
-0.107318
-0.130917
-0.153607
-0.0783458
-0.0916644
-0.10793
-0.126982
-0.143929
-0.0764776
-0.0858133
-0.100765
-0.118225
-0.134594
-0.0758317
-0.0865691
-0.101442
-0.116875
-0.130436
-0.0459563
-0.0728846
-0.0965011
-0.114134
-0.126895
-0.171898
-0.182656
-0.186548
-0.188108
-0.190126
-0.193145
-0.196807
-0.199773
-0.200587
-0.198319
-0.192569
-0.183252
-0.171044
-0.157124
-0.142664
-0.128345
-0.114489
-0.102529
-0.0947088
-0.0920348
-0.0934448
-0.0963968
-0.0987056
-0.0994197
-0.0980581
-0.0945744
-0.089468
-0.082902
-0.0752047
-0.0666307
-0.0577095
-0.0490128
-0.0410157
-0.0338373
-0.0275369
-0.0219258
-0.0170294
-0.0127645
-0.00926332
-0.0065674
-0.00459216
-0.00325844
-0.00217678
-0.00126363
-0.000459686
-0.160536
-0.172073
-0.177836
-0.179485
-0.179599
-0.179377
-0.178888
-0.177756
-0.175439
-0.171718
-0.166479
-0.159863
-0.152258
-0.144112
-0.135669
-0.1268
-0.117194
-0.109154
-0.104649
-0.104483
-0.107688
-0.112045
-0.115012
-0.115574
-0.113319
-0.108374
-0.101229
-0.0927647
-0.0832023
-0.0727719
-0.0620756
-0.0517029
-0.0420976
-0.0334247
-0.0258711
-0.019339
-0.0138998
-0.00939516
-0.00596584
-0.00359729
-0.00211838
-0.00143391
-0.000883221
-0.000583862
-0.000185125
-0.147952
-0.157445
-0.162992
-0.165106
-0.164845
-0.163005
-0.160125
-0.156419
-0.152108
-0.147452
-0.143208
-0.140393
-0.139385
-0.139101
-0.135278
-0.126058
-0.117584
-0.114048
-0.11321
-0.113367
-0.11534
-0.117826
-0.119256
-0.118752
-0.115842
-0.110427
-0.103135
-0.0943038
-0.0842643
-0.0734218
-0.0623195
-0.0514966
-0.0414035
-0.0322934
-0.0243596
-0.0175741
-0.011972
-0.0074385
-0.0041245
-0.00192589
-0.00066359
-0.000120511
0.000277745
0.000294446
0.000380226
-0.141198
-0.148976
-0.153721
-0.155506
-0.154624
-0.151456
-0.146601
-0.140367
-0.133559
-0.126857
-0.122542
-0.122134
-0.128716
-0.141244
-0.142287
-0.127008
-0.108462
-0.101842
-0.106162
-0.113605
-0.119159
-0.12214
-0.122485
-0.120573
-0.116607
-0.110235
-0.102281
-0.0929819
-0.0827284
-0.0718931
-0.0609094
-0.0502208
-0.0401978
-0.0311149
-0.0231476
-0.0163427
-0.0107671
-0.00635636
-0.00317248
-0.00103723
0.000175293
0.000750273
0.00102215
0.000854058
0.000649042
-0.136504
-0.143576
-0.148002
-0.149614
-0.148328
-0.14449
-0.138516
-0.131204
-0.123196
-0.115959
-0.111208
-0.111675
-0.121083
-0.135781
-0.141781
-0.135415
-0.12428
-0.115429
-0.112439
-0.113612
-0.116308
-0.118283
-0.118625
-0.116939
-0.112994
-0.107146
-0.0995794
-0.0906354
-0.080684
-0.0701288
-0.0594127
-0.0489597
-0.0391041
-0.030183
-0.0223362
-0.01564
-0.0101552
-0.00585852
-0.00274254
-0.000643412
0.000567494
0.0011848
0.00136079
0.00117635
0.00078807
-0.196974
-0.197501
-0.198252
-0.199317
-0.201029
-0.204269
-0.209025
-0.214071
-0.217658
-0.217606
-0.212327
-0.201061
-0.183863
-0.161397
-0.135176
-0.107385
-0.0804604
-0.0563596
-0.0363659
-0.0213427
-0.0115131
-0.00649583
-0.00541936
-0.00717651
-0.010659
-0.0149691
-0.019471
-0.0235288
-0.0269804
-0.029739
-0.03183
-0.0334026
-0.0345669
-0.0351406
-0.0346103
-0.0327926
-0.0299526
-0.026419
-0.0224854
-0.0183446
-0.0142271
-0.0103771
-0.00695192
-0.00399855
-0.00121718
-0.191363
-0.193387
-0.194566
-0.196818
-0.200204
-0.20515
-0.211244
-0.217377
-0.22187
-0.222645
-0.218202
-0.207772
-0.190951
-0.168459
-0.1419
-0.113424
-0.0859699
-0.0613786
-0.0410651
-0.0256559
-0.0154043
-0.00998726
-0.00851219
-0.00987244
-0.0129866
-0.0169293
-0.0210801
-0.0250575
-0.0282468
-0.0305175
-0.0320781
-0.0333532
-0.0345557
-0.0352099
-0.0347366
-0.032859
-0.0299322
-0.0262847
-0.0222027
-0.0178259
-0.0134874
-0.00976275
-0.00657836
-0.00393372
-0.00143559
-0.20035
-0.19894
-0.198498
-0.19908
-0.202018
-0.207393
-0.214237
-0.220908
-0.226222
-0.227218
-0.222792
-0.212259
-0.195589
-0.173499
-0.147508
-0.119907
-0.0933586
-0.0697539
-0.0503241
-0.0356787
-0.0260641
-0.0211099
-0.019829
-0.0210047
-0.0235912
-0.026732
-0.0298155
-0.0324548
-0.0343662
-0.0352863
-0.0354972
-0.0354607
-0.0354534
-0.0350271
-0.0335881
-0.0310646
-0.0278669
-0.024353
-0.0206828
-0.0168754
-0.0130034
-0.00931264
-0.00617895
-0.00349866
-0.00127114
-0.187719
-0.190202
-0.191465
-0.193866
-0.197933
-0.203832
-0.210912
-0.217742
-0.222765
-0.224112
-0.220211
-0.210382
-0.194655
-0.174161
-0.15045
-0.125603
-0.101966
-0.0812418
-0.0645596
-0.0525716
-0.0452559
-0.0418941
-0.041339
-0.042368
-0.0440088
-0.0454697
-0.0463371
-0.0464739
-0.0457924
-0.0441105
-0.0417284
-0.0391916
-0.0367769
-0.0342348
-0.0313238
-0.0281107
-0.0248237
-0.021461
-0.0179226
-0.0142037
-0.0105843
-0.00737169
-0.00482616
-0.00272461
-0.00100224
-0.223992
-0.203614
-0.199769
-0.19768
-0.198871
-0.203215
-0.20904
-0.214272
-0.217492
-0.217188
-0.212328
-0.202416
-0.18777
-0.169657
-0.149549
-0.129063
-0.109875
-0.0935615
-0.081446
-0.0741402
-0.0709761
-0.0704445
-0.0711181
-0.0719996
-0.0722907
-0.0713702
-0.0690561
-0.0657611
-0.0612453
-0.0558475
-0.0500292
-0.0442755
-0.0389485
-0.0340363
-0.0294265
-0.024977
-0.0207847
-0.0168884
-0.0133648
-0.0102687
-0.00763819
-0.0054453
-0.00365404
-0.00207903
-0.000758816
)
;

boundaryField
{
    inlet
    {
        type            zeroGradient;
    }
    outlet
    {
        type            fixedValue;
        value           uniform 0;
    }
    upperWall
    {
        type            zeroGradient;
    }
    lowerWall
    {
        type            zeroGradient;
    }
    frontAndBack
    {
        type            empty;
    }
}


// ************************************************************************* //
