/*--------------------------------*- C++ -*----------------------------------*\
  =========                 |
  \\      /  F ield         | OpenFOAM: The Open Source CFD Toolbox
   \\    /   O peration     | Website:  https://openfoam.org
    \\  /    A nd           | Version:  10
     \\/     M anipulation  |
\*---------------------------------------------------------------------------*/
FoamFile
{
    format      ascii;
    class       surfaceScalarField;
    location    "8";
    object      phi;
}
// * * * * * * * * * * * * * * * * * * * * * * * * * * * * * * * * * * * * * //

dimensions      [0 3 -1 0 0 0 0];

internalField   nonuniform List<scalar> 
890
(
0.00984621
0.000153786
0.00971777
0.000128448
0.00946853
0.000249232
0.00941867
4.98597e-05
0.000147505
0.00927117
0.0101199
3.39125e-05
0.0102013
4.69831e-05
0.0104075
4.30583e-05
0.0104653
-7.94757e-06
-6.9416e-05
0.0106822
0.0100715
-3.75646e-05
0.0102153
-9.68731e-05
0.0103783
-0.000119879
0.010521
-0.000150673
-0.000191116
0.0106427
0.0100896
-0.000127147
0.010214
-0.00022134
0.01033
-0.00023586
0.0104186
-0.000239197
-0.000251071
0.0104785
0.00987285
0.00965151
0.00941565
0.00917646
0.00892538
0.00927
-0.000103985
0.000105151
0.00929397
-0.00026661
0.000242646
0.00936814
-0.000387892
0.000313724
0.00947967
-0.000490695
0.000379162
0.00961964
-0.000597134
0.000457159
0.00979001
-0.000736454
0.00056609
0.00997524
-0.000897432
0.000712199
0.0101685
-0.00109187
0.000898601
0.0103592
-0.00131366
0.00112296
0.0105305
-0.00155758
0.00138627
0.01067
-0.00180097
0.00166149
0.0107663
-0.00203552
0.00193925
0.0108078
-0.00222572
0.00218421
0.0107896
-0.0023591
0.0023773
0.0106872
-0.00239856
0.00250089
0.0104938
-0.00234238
0.00253587
0.0102492
-0.00225474
0.00249925
0.0099893
-0.00215081
0.00241074
0.0097128
-0.00197764
0.00225415
0.00942466
-0.00175341
0.00204155
0.00913923
-0.00149495
0.00178038
0.00886389
-0.00120391
0.00147924
0.00861302
-0.000906841
0.00115772
0.00840098
-0.000619887
0.000831924
0.00823365
-0.000347689
0.00051502
0.00810765
-9.66564e-05
0.000222657
0.00801608
0.000128617
-3.70531e-05
0.0079646
0.000323693
-0.000272204
0.00794004
0.000488225
-0.000463664
0.0079318
0.000617786
-0.000609549
0.00793215
0.000708914
-0.00070927
0.00793572
0.000763597
-0.000767167
0.00793937
0.000783368
-0.000787012
0.00793663
0.000775609
-0.000772866
0.00792212
0.000740126
-0.00072562
0.00788923
0.000701103
-0.000668215
0.00783946
0.00064326
-0.000593483
0.00777146
0.000600249
-0.000532253
0.00769531
0.000516663
-0.00044051
0.007604
0.000471204
-0.000379901
0.0075108
0.000380266
-0.000287065
0.00740226
0.00037575
-0.000267205
0.00730269
0.000330093
-0.000230521
0.00719562
0.000362166
-0.0002551
0.000359496
-0.000268559
0.0107463
-0.000168062
0.0107699
-0.000290222
0.0107924
-0.000410365
0.0108244
-0.000522706
0.0108604
-0.000633145
0.0108813
-0.000757375
0.010887
-0.000903069
0.0108707
-0.00107556
0.0108298
-0.00127278
0.0107542
-0.00148195
0.0106361
-0.00168286
0.0104652
-0.00186461
0.0102462
-0.00200682
0.00996535
-0.0020782
0.00958596
-0.00201917
0.00913817
-0.00189459
0.00865915
-0.00177572
0.00816417
-0.00165583
0.00767726
-0.00149073
0.00720589
-0.00128203
0.00677169
-0.00106075
0.00637748
-0.000809699
0.00604064
-0.000570005
0.00576981
-0.000349051
0.00556786
-0.000145742
0.00543104
4.01641e-05
0.00536452
0.000195135
0.0053574
0.000330812
0.00539919
0.000446437
0.00547635
0.00054063
0.00557504
0.000610226
0.00568357
0.000655061
0.00578999
0.000676951
0.00588458
0.000681021
0.00595721
0.000667491
0.00601174
0.000646569
0.00604819
0.000606814
0.00607964
0.000568798
0.00609798
0.000498326
0.00611194
0.000457245
0.00611168
0.00038052
0.00610705
0.000380386
0.0061086
0.000328537
0.00611138
0.000359392
0.00033127
0.0107274
-0.000252724
0.0107717
-0.000334558
0.010786
-0.000424696
0.0107804
-0.000517077
0.0107537
-0.000606432
0.0107021
-0.000705801
0.01062
-0.000820933
0.0105032
-0.000958821
0.0103436
-0.00111318
0.0101466
-0.00128488
0.00992019
-0.00145649
0.00965568
-0.0016001
0.00931712
-0.00166825
0.00882219
-0.00158328
0.00820909
-0.00140607
0.00759329
-0.00127879
0.00692704
-0.00110946
0.00617027
-0.000899052
0.00541311
-0.000733578
0.00472716
-0.00059608
0.00410823
-0.000441824
0.00359917
-0.00030064
0.00320059
-0.000171428
0.00290841
-5.68699e-05
0.00271376
4.89146e-05
0.00260966
0.000144256
0.00258158
0.000223216
0.0026197
0.000292693
0.00271348
0.000352655
0.00285103
0.000403081
0.00301923
0.000442028
0.00320605
0.00046824
0.00340073
0.000482273
0.00359688
0.000484868
0.00378808
0.000476295
0.00397599
0.000458653
0.0041547
0.000428111
0.0043301
0.000393396
0.00448319
0.000345237
0.00463007
0.000310367
0.00474795
0.000262632
0.00487406
0.000254278
0.00498727
0.000215329
0.00511727
0.000229392
0.000191777
0.0105086
-0.000282852
0.0104938
-0.000319673
0.010435
-0.000365927
0.0103272
-0.000409296
0.0101779
-0.000457103
0.00997908
-0.000507008
0.00972397
-0.000565825
0.00940482
-0.000639673
0.00900849
-0.000716845
0.00854616
-0.000822549
0.00799504
-0.00090537
0.00743306
-0.00103813
0.00680415
-0.00103934
0.00597413
-0.000753255
0.00495927
-0.000391208
0.00376647
-8.59941e-05
0.00258966
6.73506e-05
0.0016006
9.00102e-05
0.000897151
-3.01322e-05
0.000456076
-0.000155004
0.000216462
-0.000202209
8.74747e-05
-0.000171653
2.78734e-05
-0.000111826
2.03805e-05
-4.9377e-05
6.03148e-05
8.98032e-06
0.000150519
5.4052e-05
0.000281754
9.1981e-05
0.000450786
0.000123661
0.000652728
0.000150713
0.00088257
0.000173239
0.00113404
0.000190554
0.00140059
0.000201692
0.00167526
0.000207603
0.00195233
0.000207796
0.00222628
0.000202345
0.00249293
0.000192007
0.00274498
0.000176056
0.00298111
0.000157271
0.00319145
0.000134897
0.00338615
0.000115671
0.00355305
9.57233e-05
0.00372151
8.58222e-05
0.00386544
7.13972e-05
0.00402322
7.1615e-05
5.58761e-05
0.00864253
0.00832286
0.00795693
0.00754764
0.00709053
0.00658353
0.0060177
0.00537803
0.00466118
0.00383863
0.00293326
0.00189514
0.000855794
0.000102539
-0.000288669
-0.000374664
-0.000307313
-0.000217303
-0.000247435
-0.000402439
-0.000604649
-0.000776302
-0.000888128
-0.000937505
-0.000928525
-0.000874473
-0.000782492
-0.000658831
-0.000508118
-0.000334879
-0.000144325
5.7367e-05
0.00026497
0.000472766
0.000675111
0.000867118
0.00104317
0.00120044
0.00133534
0.00145101
0.00154674
0.00163256
0.00170396
0.00177557
4.00652e-05
-4.00652e-05
2.54922e-06
3.7516e-05
-0.000149541
0.00015209
-0.000468171
0.00031863
-0.000920217
0.000452046
-0.00142146
0.000501245
-0.00190563
0.000484171
-0.00233061
0.000424974
-0.00266844
0.000337829
-0.00289347
0.000225035
-0.00299122
9.7752e-05
-0.00295276
-3.84592e-05
-0.00278463
-0.000168131
-0.00249185
-0.000292781
-0.00208912
-0.000402733
-0.00159936
-0.00048976
-0.00105679
-0.000542565
-0.000486695
-0.000570097
9.01458e-05
-0.000576841
0.000646942
-0.000556796
0.00115814
-0.0005112
0.00160188
-0.000443741
0.00196198
-0.000360095
0.00222957
-0.000267594
0.00240234
-0.000172768
0.00248203
-7.96886e-05
0.00247766
4.36649e-06
0.00241287
6.4795e-05
0.00229962
0.000113244
0.00215207
0.00014755
0.00198285
0.000169223
0.00180275
0.000180101
0.00162382
0.000178927
0.00146481
0.000159009
0.00134272
0.000122092
0.00126224
8.04769e-05
0.00121758
4.46622e-05
0.00120324
1.43453e-05
0.00121025
-7.01107e-06
0.00123589
-2.56441e-05
0.00126924
-3.33446e-05
0.0013087
-3.94633e-05
0.00134339
-3.46913e-05
0.00138048
-3.70894e-05
-3.51619e-05
-0.000115651
7.55855e-05
-0.000454818
0.000376684
-0.000857504
0.000554776
-0.00123135
0.000692472
-0.00154003
0.000760725
-0.0017815
0.000742718
-0.00195532
0.00065799
-0.00205385
0.000523511
-0.00206832
0.000352297
-0.00198427
0.000140987
-0.00179911
-8.74144e-05
-0.00151278
-0.00032479
-0.00111622
-0.000564685
-0.000621896
-0.000787108
-4.3584e-05
-0.000981045
0.000584026
-0.00111737
0.0012472
-0.00120574
0.00192134
-0.00124424
0.00258087
-0.00123638
0.00320543
-0.00118136
0.00377545
-0.00108122
0.00427385
-0.000942143
0.00468843
-0.000774671
0.00501214
-0.000591307
0.0052438
-0.000404423
0.00538745
-0.000223346
0.00545137
-5.95463e-05
0.00543854
7.76248e-05
0.00536153
0.000190249
0.00523763
0.000271454
0.00508408
0.000322767
0.00491511
0.000349072
0.00474495
0.000349087
0.00458737
0.000316591
0.00444511
0.000264358
0.00432063
0.000204951
0.00421238
0.000152915
0.00412587
0.000100854
0.00405887
5.9992e-05
0.00401434
1.88819e-05
0.00397932
1.67168e-06
0.00394792
-8.06022e-06
0.00392173
-8.49593e-06
0.00389603
-1.13909e-05
-3.36233e-05
-0.000515419
0.000591004
-0.000700873
0.000562138
-0.000746242
0.000600144
-0.000698522
0.000644752
-0.000581967
0.00064417
-0.000421221
0.000581973
-0.000221379
0.000458147
1.64465e-05
0.000285686
0.000306602
6.2141e-05
0.000659443
-0.000211853
0.00107911
-0.00050708
0.00156466
-0.000810346
0.00210153
-0.00110155
0.00268328
-0.00136886
0.00329332
-0.00159108
0.0039183
-0.00174236
0.00453715
-0.00182458
0.00513289
-0.00183998
0.00569159
-0.00179508
0.00620201
-0.00169177
0.00665121
-0.00153042
0.00702902
-0.00131995
0.00733016
-0.00107581
0.00755433
-0.000815472
0.00770236
-0.000552456
0.00778137
-0.000302357
0.00779948
-7.7651e-05
0.00775685
0.000120247
0.00766532
0.000281779
0.00753801
0.000398769
0.00738557
0.000475202
0.00721886
0.000515782
0.00704488
0.000523075
0.00687069
0.000490778
0.00670005
0.000434994
0.0065373
0.000367707
0.00638725
0.000302959
0.00625774
0.000230364
0.00615925
0.000158489
0.00608565
9.24808e-05
0.00603768
4.96444e-05
0.00598554
4.4077e-05
0.00593661
4.04329e-05
0.00585642
6.87952e-05
4.90258e-05
-0.000248835
0.000839839
-0.000160549
0.000473852
7.01253e-05
0.00036947
0.000420515
0.000294363
0.000856675
0.00020801
0.00134583
9.28138e-05
0.00186529
-6.13121e-05
0.00240148
-0.0002505
0.00295747
-0.000493852
0.00352791
-0.000782292
0.00411094
-0.00109011
0.00470631
-0.00140572
0.00530638
-0.00170162
0.00589503
-0.00195752
0.00646031
-0.00215636
0.00699153
-0.00227357
0.00747558
-0.00230864
0.00790899
-0.00227338
0.00828791
-0.002174
0.00860881
-0.00201267
0.00887026
-0.00179187
0.00907119
-0.00152088
0.00921419
-0.00121881
0.00930412
-0.000905407
0.00934453
-0.000592866
0.00934358
-0.000301405
0.00931098
-4.50501e-05
0.00923953
0.000191694
0.00913918
0.000382132
0.00901479
0.000523157
0.00887138
0.000618609
0.00871577
0.000671389
0.00855267
0.000686179
0.00838225
0.000661198
0.00821179
0.000605457
0.00804461
0.000534881
0.00788903
0.000458544
0.00773308
0.00038631
0.00758903
0.000302546
0.00744692
0.00023459
0.00733752
0.000159038
0.00724037
0.00014123
0.00716345
0.000117354
0.00708293
0.000149311
0.000153881
0.00094499
0.00166149
0.00234468
0.00301821
0.00368338
0.00434228
0.00499317
0.00564127
0.00627038
0.00687435
0.00744573
0.00797927
0.00846186
0.00888165
0.00922618
0.00948848
0.00967909
0.00981644
0.00989659
0.00992547
0.00991397
0.00987234
0.00981125
0.00973776
0.00965992
0.00958117
0.00949907
0.00941856
0.00933702
0.00925063
0.00915997
0.00906419
0.00896336
0.00885169
0.00873153
0.0085982
0.00846326
0.00831731
0.00817935
0.00803404
0.00790601
0.00778004
0.00766687
0.00756108
)
;

boundaryField
{
    inlet
    {
        type            calculated;
        value           nonuniform List<scalar> 5(-0.01 -0.01 -0.01 -0.01 -0.01);
    }
    outlet
    {
        type            calculated;
        value           nonuniform List<scalar> 10(0.00710468 0.0061396 0.00525676 0.00415912 0.00183145 0.00141564 0.00389449 0.00577377 0.00697808 0.0074464);
    }
    upperWall
    {
        type            calculated;
        value           uniform 0;
    }
    lowerWall
    {
        type            calculated;
        value           uniform 0;
    }
    frontAndBack
    {
        type            empty;
        value           nonuniform List<scalar> 0();
    }
}


// ************************************************************************* //
