/*--------------------------------*- C++ -*----------------------------------*\
  =========                 |
  \\      /  F ield         | OpenFOAM: The Open Source CFD Toolbox
   \\    /   O peration     | Website:  https://openfoam.org
    \\  /    A nd           | Version:  10
     \\/     M anipulation  |
\*---------------------------------------------------------------------------*/
FoamFile
{
    format      ascii;
    class       volVectorField;
    location    "8";
    object      U;
}
// * * * * * * * * * * * * * * * * * * * * * * * * * * * * * * * * * * * * * //

dimensions      [0 1 -1 0 0 0 0];

internalField   nonuniform List<vector> 
475
(
(0.974282 0.0161469 0)
(0.975888 0.0063049 0)
(0.950204 0.0315533 0)
(0.954673 0.000999539 0)
(0.919993 0.0302208 0)
(0.998501 0.0086544 0)
(1.01414 0.0148181 0)
(1.02525 0.0151714 0)
(1.04391 0.00852919 0)
(1.05548 0.00193456 0)
(0.999884 0.00024069 0)
(1.0098 -0.00296012 0)
(1.02409 -0.00474396 0)
(1.04145 -0.00942381 0)
(1.05606 -0.0145513 0)
(1.0001 -0.010035 0)
(1.01003 -0.0195687 0)
(1.02277 -0.0220251 0)
(1.03548 -0.0232259 0)
(1.04426 -0.0256825 0)
(0.981123 -0.00964023 0)
(0.968764 -0.0192188 0)
(0.954065 -0.0217219 0)
(0.932903 -0.0224957 0)
(0.907842 -0.0227264 0)
(0.925495 -0.0165601 0)
(0.932543 -0.0361518 0)
(0.937893 -0.0486785 0)
(0.94393 -0.057758 0)
(0.953562 -0.066374 0)
(0.967091 -0.0769513 0)
(0.984637 -0.0907648 0)
(1.00465 -0.108494 0)
(1.02546 -0.129378 0)
(1.04525 -0.153393 0)
(1.06272 -0.177884 0)
(1.07574 -0.202266 0)
(1.08288 -0.223136 0)
(1.08373 -0.239086 0)
(1.07703 -0.248295 0)
(1.06329 -0.249222 0)
(1.04177 -0.243634 0)
(1.01398 -0.232924 0)
(0.983173 -0.21671 0)
(0.952789 -0.195466 0)
(0.924259 -0.169779 0)
(0.897729 -0.14015 0)
(0.872933 -0.108457 0)
(0.850753 -0.0761779 0)
(0.832141 -0.0449623 0)
(0.816844 -0.0160505 0)
(0.805863 0.00934997 0)
(0.799143 0.0310139 0)
(0.795587 0.049226 0)
(0.79407 0.0634377 0)
(0.793364 0.0733349 0)
(0.79357 0.0794371 0)
(0.793486 0.0820262 0)
(0.79429 0.0815189 0)
(0.792684 0.0772459 0)
(0.791724 0.0720267 0)
(0.785614 0.0646072 0)
(0.782046 0.0592567 0)
(0.771446 0.0500716 0)
(0.767188 0.0447241 0)
(0.753084 0.0349472 0)
(0.748771 0.0332588 0)
(0.731816 0.0290772 0)
(0.728693 0.0315721 0)
(0.710471 0.0330295 0)
(1.0688 -0.00886679 0)
(1.07756 -0.0214448 0)
(1.08281 -0.0332892 0)
(1.08394 -0.0442459 0)
(1.08535 -0.0555119 0)
(1.08581 -0.0685156 0)
(1.08733 -0.0843405 0)
(1.08704 -0.103541 0)
(1.08582 -0.12567 0)
(1.0807 -0.149799 0)
(1.07228 -0.173832 0)
(1.05785 -0.196424 0)
(1.03815 -0.213333 0)
(1.01195 -0.223556 0)
(0.979262 -0.223461 0)
(0.940755 -0.217138 0)
(0.893999 -0.208155 0)
(0.842295 -0.194887 0)
(0.789782 -0.17525 0)
(0.740008 -0.152042 0)
(0.694248 -0.126503 0)
(0.654135 -0.100327 0)
(0.619391 -0.0745648 0)
(0.590007 -0.0498502 0)
(0.566992 -0.0263323 0)
(0.54952 -0.00421361 0)
(0.538859 0.0154381 0)
(0.535476 0.0324391 0)
(0.53771 0.0469424 0)
(0.543808 0.0585803 0)
(0.552596 0.0669706 0)
(0.563086 0.0721431 0)
(0.573822 0.0742186 0)
(0.584231 0.0739128 0)
(0.592258 0.0715532 0)
(0.598999 0.0691963 0)
(0.602607 0.0650285 0)
(0.606634 0.0616746 0)
(0.608269 0.0539572 0)
(0.610661 0.0499342 0)
(0.611165 0.041188 0)
(0.610495 0.0415801 0)
(0.611656 0.0365155 0)
(0.609293 0.0402062 0)
(0.613959 0.0385967 0)
(1.06886 -0.0223807 0)
(1.07604 -0.0328674 0)
(1.08109 -0.044043 0)
(1.08042 -0.0552487 0)
(1.07917 -0.0660906 0)
(1.07343 -0.077941 0)
(1.06763 -0.0913751 0)
(1.05723 -0.107002 0)
(1.04524 -0.125038 0)
(1.02759 -0.144163 0)
(1.00611 -0.164365 0)
(0.97884 -0.181047 0)
(0.946372 -0.193355 0)
(0.906348 -0.193184 0)
(0.858079 -0.178832 0)
(0.79783 -0.163283 0)
(0.725202 -0.15468 0)
(0.652495 -0.147033 0)
(0.578984 -0.132515 0)
(0.503633 -0.109093 0)
(0.436703 -0.0820022 0)
(0.381449 -0.0561248 0)
(0.337379 -0.034112 0)
(0.303437 -0.0156763 0)
(0.279887 -0.000137407 0)
(0.265058 0.0136798 0)
(0.258462 0.0261988 0)
(0.259275 0.0366504 0)
(0.266177 0.0453165 0)
(0.277925 0.0523444 0)
(0.293369 0.0575864 0)
(0.311217 0.0610023 0)
(0.330337 0.0627335 0)
(0.349919 0.0629735 0)
(0.36917 0.0617194 0)
(0.388173 0.0594528 0)
(0.406339 0.0555824 0)
(0.424099 0.0513863 0)
(0.440884 0.045206 0)
(0.455076 0.0413521 0)
(0.470334 0.0351081 0)
(0.478703 0.0350634 0)
(0.496855 0.0299364 0)
(0.499746 0.0325417 0)
(0.525655 0.0281678 0)
(1.05047 -0.030244 0)
(1.05068 -0.036181 0)
(1.04873 -0.0427864 0)
(1.03926 -0.0496122 0)
(1.02848 -0.0562584 0)
(1.0091 -0.0638035 0)
(0.98899 -0.0719796 0)
(0.958869 -0.0822757 0)
(0.926396 -0.0935776 0)
(0.882598 -0.106999 0)
(0.832914 -0.120435 0)
(0.774447 -0.132278 0)
(0.704128 -0.141606 0)
(0.634775 -0.133761 0)
(0.556919 -0.111882 0)
(0.452109 -0.0859846 0)
(0.315719 -0.0537229 0)
(0.197745 -0.0192509 0)
(0.115117 -0.00426054 0)
(0.0601931 -0.00553094 0)
(0.0299884 -0.00876986 0)
(0.0133392 -0.00701873 0)
(0.0045187 -0.0023312 0)
(0.0011468 0.00330399 0)
(0.00289496 0.00910954 0)
(0.0096666 0.0147249 0)
(0.0209467 0.0194531 0)
(0.0361382 0.0234469 0)
(0.0548566 0.0270024 0)
(0.0765746 0.0300728 0)
(0.100745 0.0324748 0)
(0.126687 0.0340369 0)
(0.15379 0.0348153 0)
(0.181376 0.0347317 0)
(0.208939 0.0337505 0)
(0.23602 0.0320221 0)
(0.261962 0.0295487 0)
(0.286466 0.0266952 0)
(0.308847 0.0232928 0)
(0.328889 0.0203399 0)
(0.347654 0.0171478 0)
(0.362709 0.0156372 0)
(0.381855 0.0128936 0)
(0.390695 0.0130413 0)
(0.415885 0.00997316 0)
(0.879527 -0.0245218 0)
(0.848618 -0.0259626 0)
(0.814871 -0.028567 0)
(0.776192 -0.030304 0)
(0.734555 -0.0330319 0)
(0.685275 -0.0353559 0)
(0.63422 -0.0386924 0)
(0.571813 -0.0432342 0)
(0.508377 -0.0472997 0)
(0.428221 -0.0556232 0)
(0.345717 -0.0578791 0)
(0.246677 -0.0720082 0)
(0.126784 -0.0617316 0)
(0.0371288 -0.0102245 0)
(-0.0178454 0.0372881 0)
(-0.0366583 0.0662126 0)
(-0.0348323 0.063515 0)
(-0.0245216 0.0331114 0)
(-0.0202486 -0.00350381 0)
(-0.0310272 -0.0246608 0)
(-0.0514279 -0.0286304 0)
(-0.0708752 -0.0241789 0)
(-0.0847508 -0.0176286 0)
(-0.092375 -0.0117328 0)
(-0.094048 -0.00668919 0)
(-0.0906675 -0.00263649 0)
(-0.0832248 0.000376588 0)
(-0.0723572 0.0026968 0)
(-0.0585762 0.00447472 0)
(-0.0423378 0.00581673 0)
(-0.0241382 0.0067649 0)
(-0.00443479 0.00731092 0)
(0.0161832 0.00756218 0)
(0.0370021 0.00747765 0)
(0.057551 0.00707491 0)
(0.0773069 0.00641376 0)
(0.0957411 0.00553272 0)
(0.112435 0.00456463 0)
(0.127027 0.00351727 0)
(0.139562 0.00262511 0)
(0.150109 0.00187625 0)
(0.159123 0.00142183 0)
(0.167254 0.00123355 0)
(0.173467 0.00124206 0)
(0.183115 0.00113104 0)
(0.00331119 -0.0257777 0)
(0.004478 -0.0258349 0)
(-0.00394011 -0.0155879 0)
(-0.0254717 0.00452025 0)
(-0.0668639 0.022049 0)
(-0.117953 0.0291028 0)
(-0.168934 0.0300505 0)
(-0.21572 0.0281429 0)
(-0.254584 0.0242946 0)
(-0.282498 0.0191356 0)
(-0.297574 0.0128964 0)
(-0.299592 0.00584284 0)
(-0.288454 -0.00184346 0)
(-0.264708 -0.00916947 0)
(-0.229411 -0.0156075 0)
(-0.184219 -0.0209267 0)
(-0.132485 -0.0235782 0)
(-0.0768518 -0.0249785 0)
(-0.0193456 -0.0247302 0)
(0.0373937 -0.023448 0)
(0.0908972 -0.0209761 0)
(0.138788 -0.017442 0)
(0.179168 -0.0131796 0)
(0.210727 -0.00861834 0)
(0.232986 -0.00405133 0)
(0.245756 0.000261964 0)
(0.249494 0.00377033 0)
(0.246026 0.00639074 0)
(0.236785 0.00808477 0)
(0.223321 0.00945809 0)
(0.207005 0.0108978 0)
(0.189062 0.0117585 0)
(0.170698 0.0109343 0)
(0.153716 0.00820603 0)
(0.139682 0.00448216 0)
(0.12971 0.000788927 0)
(0.123533 -0.00209307 0)
(0.120782 -0.00399545 0)
(0.12042 -0.0048831 0)
(0.122226 -0.00493265 0)
(0.125102 -0.00423853 0)
(0.128789 -0.00315419 0)
(0.132756 -0.00201947 0)
(0.135477 -0.00141613 0)
(0.141556 -0.000939064 0)
(-0.00183078 0.0197591 0)
(-0.022541 0.0349288 0)
(-0.0664991 0.0488813 0)
(-0.104273 0.0624825 0)
(-0.140775 0.0709395 0)
(-0.168898 0.0710134 0)
(-0.190271 0.0649833 0)
(-0.204376 0.0544233 0)
(-0.210359 0.0407673 0)
(-0.206434 0.0234759 0)
(-0.192375 0.00483839 0)
(-0.167625 -0.0148499 0)
(-0.132841 -0.0345686 0)
(-0.0876734 -0.052934 0)
(-0.0344355 -0.0687653 0)
(0.0264291 -0.0805028 0)
(0.0924298 -0.087815 0)
(0.159528 -0.0908609 0)
(0.226048 -0.0901001 0)
(0.289702 -0.0860433 0)
(0.349163 -0.0787111 0)
(0.402621 -0.0684398 0)
(0.448479 -0.0559516 0)
(0.485674 -0.0422581 0)
(0.513817 -0.0283323 0)
(0.53287 -0.0147267 0)
(0.543301 -0.00253921 0)
(0.546396 0.00772724 0)
(0.541897 0.015935 0)
(0.53113 0.0215298 0)
(0.516281 0.0244441 0)
(0.499514 0.0255541 0)
(0.482286 0.0252852 0)
(0.466471 0.0229925 0)
(0.451815 0.0190426 0)
(0.438629 0.0144644 0)
(0.426634 0.0103838 0)
(0.416912 0.00654026 0)
(0.40893 0.00330446 0)
(0.403445 -1.39777e-06 0)
(0.399573 -0.00202455 0)
(0.395749 -0.00439379 0)
(0.393743 -0.00491861 0)
(0.389795 -0.00628206 0)
(0.389458 -0.00639825 0)
(-0.0345078 -0.00830853 0)
(-0.066291 0.033829 0)
(-0.0733308 0.0550941 0)
(-0.0739198 0.0697498 0)
(-0.0660323 0.0757705 0)
(-0.0519369 0.0726033 0)
(-0.0340163 0.061991 0)
(-0.0113392 0.0461832 0)
(0.014107 0.0260851 0)
(0.0459845 0.00253988 0)
(0.0848288 -0.0239213 0)
(0.131507 -0.0526161 0)
(0.183557 -0.0811696 0)
(0.240344 -0.107274 0)
(0.301124 -0.129777 0)
(0.363139 -0.145367 0)
(0.425192 -0.154919 0)
(0.485468 -0.158101 0)
(0.542408 -0.155684 0)
(0.59497 -0.147877 0)
(0.64236 -0.134778 0)
(0.683621 -0.11725 0)
(0.717804 -0.0965361 0)
(0.744389 -0.0739512 0)
(0.763474 -0.0509792 0)
(0.775218 -0.028951 0)
(0.780127 -0.00898214 0)
(0.779267 0.00831028 0)
(0.772771 0.0222445 0)
(0.761435 0.0322886 0)
(0.746463 0.0393035 0)
(0.729927 0.0433877 0)
(0.712912 0.044016 0)
(0.6962 0.0405429 0)
(0.678823 0.0345504 0)
(0.662242 0.0274376 0)
(0.645817 0.0210891 0)
(0.632181 0.0141019 0)
(0.619795 0.00842716 0)
(0.612546 0.00343025 0)
(0.604887 0.00221145 0)
(0.60259 0.00254259 0)
(0.5942 0.00304248 0)
(0.592884 0.00410034 0)
(0.577385 -0.000152183 0)
(-0.0288685 0.140655 0)
(-0.0229202 0.0885009 0)
(-0.00788197 0.0735938 0)
(0.0223404 0.0662622 0)
(0.061848 0.0587729 0)
(0.107811 0.0486505 0)
(0.158548 0.0337155 0)
(0.21119 0.0138881 0)
(0.26512 -0.0123291 0)
(0.322537 -0.0429349 0)
(0.381548 -0.0754694 0)
(0.442237 -0.108647 0)
(0.503129 -0.140296 0)
(0.563466 -0.168439 0)
(0.621831 -0.191082 0)
(0.676715 -0.206184 0)
(0.726894 -0.213664 0)
(0.771609 -0.213839 0)
(0.810718 -0.207233 0)
(0.844522 -0.194112 0)
(0.87307 -0.174565 0)
(0.89613 -0.149691 0)
(0.91365 -0.121344 0)
(0.925692 -0.091586 0)
(0.932921 -0.0615447 0)
(0.93536 -0.0329327 0)
(0.93353 -0.0072271 0)
(0.92853 0.0148641 0)
(0.920327 0.0328767 0)
(0.909008 0.0462415 0)
(0.894706 0.0552408 0)
(0.879364 0.060283 0)
(0.863296 0.06181 0)
(0.847332 0.0591424 0)
(0.829398 0.0535878 0)
(0.813269 0.046108 0)
(0.795727 0.0387655 0)
(0.782542 0.0312344 0)
(0.764492 0.0232699 0)
(0.753896 0.0155885 0)
(0.7354 0.00831686 0)
(0.73204 0.00686431 0)
(0.715251 0.0055341 0)
(0.717602 0.00997667 0)
(0.697815 0.0100143 0)
(0.0831789 0.00372401 0)
(0.118619 -0.00510831 0)
(0.203232 -0.00780596 0)
(0.269234 -0.013023 0)
(0.333489 -0.0210094 0)
(0.398362 -0.0324612 0)
(0.4644 -0.0478532 0)
(0.529821 -0.0675665 0)
(0.59371 -0.0911967 0)
(0.656937 -0.118893 0)
(0.7176 -0.14816 0)
(0.774625 -0.177988 0)
(0.826313 -0.205197 0)
(0.872071 -0.227721 0)
(0.910421 -0.244293 0)
(0.940694 -0.252565 0)
(0.962504 -0.252994 0)
(0.976917 -0.247143 0)
(0.985263 -0.235196 0)
(0.989227 -0.216937 0)
(0.990017 -0.192521 0)
(0.987809 -0.162761 0)
(0.983281 -0.129887 0)
(0.977139 -0.0959646 0)
(0.970133 -0.0622736 0)
(0.962447 -0.031021 0)
(0.954547 -0.00308323 0)
(0.946792 0.0208444 0)
(0.93869 0.0404639 0)
(0.930224 0.0554515 0)
(0.920739 0.0658975 0)
(0.911396 0.0719368 0)
(0.901075 0.0739044 0)
(0.891444 0.0722447 0)
(0.878859 0.0677812 0)
(0.867691 0.0620253 0)
(0.851779 0.054673 0)
(0.840891 0.047915 0)
(0.82224 0.0388341 0)
(0.813594 0.03214 0)
(0.792774 0.0233349 0)
(0.788516 0.0209658 0)
(0.767007 0.0176732 0)
(0.766783 0.019978 0)
(0.744645 0.0208195 0)
)
;

boundaryField
{
    inlet
    {
        type            fixedValue;
        value           uniform (1 0 0);
    }
    outlet
    {
        type            zeroGradient;
    }
    upperWall
    {
        type            noSlip;
    }
    lowerWall
    {
        type            noSlip;
    }
    frontAndBack
    {
        type            empty;
    }
}


// ************************************************************************* //
