/*--------------------------------*- C++ -*----------------------------------*\
  =========                 |
  \\      /  F ield         | OpenFOAM: The Open Source CFD Toolbox
   \\    /   O peration     | Website:  https://openfoam.org
    \\  /    A nd           | Version:  10
     \\/     M anipulation  |
\*---------------------------------------------------------------------------*/
FoamFile
{
    format      ascii;
    class       surfaceScalarField;
    location    "6.775";
    object      phi;
}
// * * * * * * * * * * * * * * * * * * * * * * * * * * * * * * * * * * * * * //

dimensions      [0 3 -1 0 0 0 0];

internalField   nonuniform List<scalar> 
760
(
-1.02649e-05
1.02643e-05
-3.34998e-05
2.32349e-05
-6.12573e-05
2.77576e-05
-9.00557e-05
2.87983e-05
-0.000118753
2.8697e-05
-0.000146919
2.81665e-05
-0.000174139
2.72202e-05
-0.000199792
2.56524e-05
-0.00022298
2.31879e-05
-0.000242495
1.95154e-05
-0.000256803
1.43082e-05
-0.000264068
7.26518e-06
-0.000262256
-1.81207e-06
-0.000249355
-1.29017e-05
-0.000223823
-2.55312e-05
-0.0001852
-3.86231e-05
-0.000135079
-5.01216e-05
-7.85302e-05
-5.65486e-05
-2.62124e-05
-5.23178e-05
-2.62124e-05
-2.45981e-05
3.48624e-05
-6.96996e-05
6.83365e-05
-0.000121776
7.98341e-05
-0.000175145
8.21672e-05
-0.000227605
8.11571e-05
-0.000278051
7.86121e-05
-0.000325492
7.4661e-05
-0.000368729
6.88898e-05
-0.000406238
6.06966e-05
-0.000436111
4.93884e-05
-0.00045603
3.42276e-05
-0.000463336
1.45713e-05
-0.000455324
-9.82433e-06
-0.000429136
-3.90894e-05
-0.000382846
-7.18217e-05
-0.000316134
-0.000105335
-0.000231694
-0.000134561
-0.000137425
-0.000150818
-4.93896e-05
-0.000140354
-7.5602e-05
-3.08258e-05
6.56882e-05
-8.56528e-05
0.000123163
-0.000148234
0.000142415
-0.0002119
0.000145834
-0.000274118
0.000143375
-0.000333612
0.000138106
-0.000389261
0.00013031
-0.000439754
0.000119384
-0.000483454
0.000104396
-0.000518308
8.42421e-05
-0.000541828
5.77476e-05
-0.000551121
2.38647e-05
-0.000542696
-1.82496e-05
-0.000513177
-6.86084e-05
-0.000459815
-0.000125184
-0.000381572
-0.000183578
-0.000280978
-0.000235155
-0.000167184
-0.000264612
-6.0006e-05
-0.000247531
-0.000135608
-3.31884e-05
9.88766e-05
-9.22943e-05
0.000182269
-0.000159559
0.00020968
-0.000227897
0.000214172
-0.000294762
0.000210239
-0.000358962
0.000202306
-0.000419492
0.00019084
-0.000475163
0.000175054
-0.000524445
0.000153679
-0.000565327
0.000125124
-0.00059519
8.76103e-05
-0.00061075
3.94245e-05
-0.000608009
-2.09901e-05
-0.00058206
-9.45581e-05
-0.000528403
-0.000178841
-0.000443986
-0.000267995
-0.000330105
-0.000349036
-0.000197096
-0.00039762
-6.9774e-05
-0.000374853
-0.000205382
-3.41971e-05
0.000133074
-9.57413e-05
0.000243814
-0.000165899
0.000279837
-0.000237351
0.000285624
-0.000307651
0.000280539
-0.000375822
0.000270478
-0.000441118
0.000256135
-0.000502629
0.000236566
-0.000559089
0.000210138
-0.000608664
0.0001747
-0.0006487
0.000127646
-0.000675435
6.61592e-05
-0.00068397
-1.2455e-05
-0.000667468
-0.00011106
-0.000618468
-0.000227841
-0.000530285
-0.000356177
-0.000401053
-0.000478268
-0.000241459
-0.000557214
-8.41745e-05
-0.000532138
-0.000289557
-3.49094e-05
0.000167983
-9.85414e-05
0.000307446
-0.000171336
0.000352632
-0.000245761
0.000360049
-0.00031952
0.000354298
-0.000391937
0.000342895
-0.000462647
0.000326845
-0.00053118
0.000305099
-0.00059673
0.000275688
-0.000657868
0.000235839
-0.000712149
0.000181927
-0.000755538
0.000109548
-0.000782261
1.42687e-05
-0.000782993
-0.000110329
-0.000745992
-0.000264843
-0.000658523
-0.000443646
-0.00051204
-0.000624751
-0.000314159
-0.000755095
-0.000108632
-0.000737665
-0.000398188
-3.56349e-05
0.000203618
-0.000101465
0.000373276
-0.000177039
0.000428206
-0.000254571
0.000437581
-0.000331943
0.00043167
-0.00040886
0.000419812
-0.000485468
0.000403453
-0.000561935
0.000381566
-0.0006382
0.000351953
-0.000713633
0.000311272
-0.000786505
0.000254798
-0.000853162
0.000176205
-0.000906675
6.77822e-05
-0.000936762
-8.0242e-05
-0.000925608
-0.000275996
-0.000851382
-0.000517872
-0.000692158
-0.000783975
-0.00044229
-0.00100496
-0.000155796
-0.00102416
-0.000553984
-3.64269e-05
0.000240045
-0.000104656
0.000441505
-0.000183152
0.000506702
-0.000263798
0.000518227
-0.000344666
0.000512538
-0.000425913
0.000501059
-0.000508332
0.000485872
-0.000592952
0.000466185
-0.000680817
0.000439818
-0.000772647
0.000403102
-0.000868222
0.000350373
-0.000965304
0.000273286
-0.00105777
0.000160251
-0.00113597
-2.04168e-06
-0.00117612
-0.00023585
-0.00114574
-0.000548255
-0.00099747
-0.00093224
-0.000686055
-0.00131638
-0.000258793
-0.00145142
-0.000812777
-3.73196e-05
0.000277365
-0.000108172
0.000512357
-0.000189635
0.000588164
-0.000273147
0.00060174
-0.000356968
0.00059636
-0.000441749
0.00058584
-0.000529034
0.000573157
-0.000620926
0.000558078
-0.00071997
0.000538861
-0.000828938
0.00051207
-0.000950363
0.000471799
-0.00108552
0.00040844
-0.00123254
0.000307271
-0.00138243
0.000147849
-0.00151978
-9.85023e-05
-0.00159705
-0.000470984
-0.00152014
-0.00100915
-0.00114793
-0.00168859
-0.000481584
-0.00211777
-0.00129436
-3.84419e-05
0.000315807
-0.000112241
0.000586156
-0.000196638
0.000672561
-0.00028249
0.000687591
-0.000368222
0.000682093
-0.000454989
0.000672607
-0.000545121
0.000663289
-0.000641891
0.000654849
-0.000749635
0.000646605
-0.000873878
0.000636313
-0.00102128
0.000619205
-0.0011992
0.000586356
-0.00141472
0.000522793
-0.00167225
0.000405379
-0.00196763
0.00019688
-0.00224911
-0.000189505
-0.00232557
-0.000932688
-0.00188174
-0.00213242
-0.000869556
-0.00312995
-0.00216392
-4.01098e-05
0.000355916
-0.00011745
0.000663496
-0.00020475
0.000759861
-0.000292157
0.000774998
-0.000378243
0.000768179
-0.000464635
0.000758998
-0.000554368
0.000753021
-0.000651787
0.000752268
-0.000762969
0.000757787
-0.000896405
0.000769749
-0.00106396
0.000786764
-0.00128223
0.000804626
-0.00157396
0.000814524
-0.00196741
0.000798824
-0.00247236
0.000701832
-0.00299593
0.000334063
-0.00321997
-0.000708647
-0.00267139
-0.00268099
-0.00136995
-0.0044314
-0.00353387
-4.29718e-05
0.000398888
-0.000124987
0.000745511
-0.000215263
0.000850138
-0.000303222
0.000862957
-0.000387627
0.000852585
-0.00047053
0.000841901
-0.000555455
0.000837946
-0.000647411
0.000844225
-0.000753673
0.000864048
-0.00088509
0.000901166
-0.00105824
0.000959913
-0.0012989
0.00104529
-0.00164569
0.00116132
-0.00214251
0.00129564
-0.0027935
0.00135282
-0.00342317
0.000963733
-0.00364501
-0.000486809
-0.00308561
-0.00324039
-0.00182925
-0.00568776
-0.00536312
-4.80745e-05
0.000446963
-0.000136717
0.000834154
-0.000230357
0.000943777
-0.000317863
0.000950463
-0.000398234
0.000932956
-0.000473902
0.000917569
-0.00054867
0.000912714
-0.000627379
0.000922934
-0.000717132
0.000953801
-0.000829036
0.00101307
-0.000980933
0.00111181
-0.00120114
0.00126549
-0.00153058
0.00149076
-0.00200142
0.00176647
-0.00258034
0.00193174
-0.00307771
0.00146111
-0.00323202
-0.000332495
-0.00288636
-0.00358605
-0.00192905
-0.00664507
-0.00729217
-5.85285e-05
0.000505491
-0.000157328
0.000932953
-0.000253963
0.00104041
-0.000338501
0.001035
-0.000411838
0.00100629
-0.000476899
0.00098263
-0.000536554
0.000972368
-0.000594511
0.000980892
-0.000655872
0.00101516
-0.00072834
0.00108554
-0.000824157
0.00120763
-0.000960668
0.00140201
-0.00116038
0.00169047
-0.00142609
0.00203219
-0.00172465
0.0022303
-0.00195301
0.00168947
-0.00206829
-0.000217214
-0.00206877
-0.00358557
-0.00154803
-0.0071658
-0.0088402
-7.13274e-05
0.000576819
-0.000183806
0.00104543
-0.000287294
0.0011439
-0.00037255
0.00112026
-0.000438543
0.00107229
-0.000489276
0.00103336
-0.000528046
0.00101114
-0.00055717
0.00101002
-0.000578231
0.00103622
-0.000592626
0.00109993
-0.000602543
0.00121754
-0.000607329
0.00140679
-0.000606011
0.00168915
-0.00057842
0.0020046
-0.000533776
0.00218565
-0.000501326
0.00165702
-0.000587633
-0.000130907
-0.000919669
-0.00325354
-0.000945733
-0.00713974
-0.00978593
-0.000138562
0.00071538
-0.000265679
0.00117255
-0.000356106
0.00123433
-0.000418576
0.00118273
-0.000464159
0.00111787
-0.000496663
0.00106587
-0.000515629
0.0010301
-0.000518437
0.00101282
-0.000501195
0.00101898
-0.000457443
0.00105618
-0.000378656
0.00113876
-0.000249944
0.00127808
-4.96645e-05
0.00148887
0.000226836
0.0017281
0.000564788
0.0018477
0.000806321
0.00141549
0.000734565
-5.91515e-05
6.02457e-05
-0.00257922
-0.000396415
-0.00668308
-0.0101824
-9.02184e-05
0.000805599
-0.000281458
0.00136379
-0.0004137
0.00136657
-0.000494917
0.00126394
-0.000538857
0.00116181
-0.000555428
0.00108244
-0.000548056
0.00102273
-0.000515716
0.000980484
-0.000453789
0.000957054
-0.00035109
0.000953482
-0.000193145
0.000980812
4.24756e-05
0.00104246
0.000375994
0.00115536
0.00082397
0.00128012
0.00133254
0.00133913
0.00170387
0.00104416
0.00161448
3.02363e-05
0.000856745
-0.00182148
0.000176929
-0.00600326
-0.0100054
-0.000384795
0.00119039
-0.00045835
0.00143734
-0.000528756
0.00143697
-0.000590325
0.00132551
-0.000606031
0.00117752
-0.000582004
0.00105841
-0.000523374
0.000964103
-0.000429961
0.00088707
-0.000302962
0.000830056
-0.000133956
0.000784476
8.49661e-05
0.000761891
0.000370437
0.000756987
0.00074101
0.000784782
0.00119635
0.000824778
0.00171015
0.000825336
0.00209984
0.000654466
0.00222692
-9.68472e-05
0.0017879
-0.00138247
0.00095514
-0.0051705
-0.00905028
-0.00135995
0.00255035
-0.00132626
0.00140366
-0.00107694
0.00118765
-0.000716623
0.000965199
-0.00033457
0.000795462
5.16121e-05
0.000672228
0.00042988
0.000585835
0.000798565
0.000518386
0.00115891
0.000469709
0.00151517
0.000428219
0.00187618
0.000400881
0.00225053
0.000382635
0.00266558
0.000369733
0.00312546
0.000364894
0.00364843
0.000302366
0.00412106
0.000181842
0.00429926
-0.000275053
0.00410885
-0.00119206
0.00258124
-0.00364289
-0.00646904
0.00255035
0.003954
0.00514165
0.00610685
0.00690231
0.00757454
0.00816037
0.00867876
0.00914847
0.00957669
0.00997757
0.0103602
0.0107299
0.0110948
0.0113972
0.011579
0.011304
0.0101119
0.00646904
)
;

boundaryField
{
    movingWall
    {
        type            calculated;
        value           uniform 0;
    }
    fixedWalls
    {
        type            calculated;
        value           uniform 0;
    }
    frontAndBack
    {
        type            empty;
        value           nonuniform List<scalar> 0();
    }
}


// ************************************************************************* //
