/*--------------------------------*- C++ -*----------------------------------*\
  =========                 |
  \\      /  F ield         | OpenFOAM: The Open Source CFD Toolbox
   \\    /   O peration     | Website:  https://openfoam.org
    \\  /    A nd           | Version:  10
     \\/     M anipulation  |
\*---------------------------------------------------------------------------*/
FoamFile
{
    format      ascii;
    class       volVectorField;
    location    "7.3";
    object      U;
}
// * * * * * * * * * * * * * * * * * * * * * * * * * * * * * * * * * * * * * //

dimensions      [0 1 -1 0 0 0 0];

internalField   nonuniform List<vector> 
496
(
(9.9564 0.0639248 0)
(9.95898 -0.15134 0)
(10.2143 -0.132469 0)
(10.8015 -0.202271 0)
(9.99172 0.50554 0)
(9.85965 -1.27974 0)
(10.228 -0.314079 0)
(10.8938 -1.14797 0)
(10.7205 1.3902 0)
(9.17934 -3.07262 0)
(11.188 -0.169633 0)
(10.8791 -4.2398 0)
(11.8335 1.6884 0)
(8.38688 -2.79097 0)
(12.4724 0.962996 0)
(10.6357 -6.78001 0)
(11.4347 -0.232822 2.23571e-18)
(12.2399 -0.189912 4.72039e-19)
(11.6431 -0.428866 -1.53737e-18)
(12.6204 0.175552 2.92992e-18)
(13.1103 -2.17712 -7.00773e-19)
(13.3629 -0.530585 -3.40234e-18)
(12.7091 -5.29749 -4.0298e-17)
(16.1646 -4.58317 6.86499e-17)
(12.7807 -0.182153 0)
(13.0923 -0.213349 0)
(13.2477 -0.0718823 0)
(13.2838 -0.0320102 0)
(13.1657 0.151809 0)
(13.6168 -0.223868 0)
(13.8735 -0.454097 0)
(13.9779 -0.629314 0)
(12.9396 0.60373 0)
(12.923 0.932129 0)
(13.343 0.648275 0)
(13.6108 0.225925 0)
(9.95449 -2.6776 0)
(10.3193 -1.80321 0)
(8.44334 -1.01759 0)
(8.54683 0.0484582 0)
(13.3247 0.124415 0)
(13.2787 0.219256 0)
(13.2509 0.285584 0)
(13.0797 0.352116 0)
(13.0221 0.369741 0)
(12.7974 0.401028 0)
(12.7181 0.346839 0)
(12.4828 0.346007 0)
(12.3968 0.232311 0)
(12.2737 0.233387 0)
(12.2847 0.191742 0)
(12.3421 0.239937 0)
(12.3318 0.260843 0)
(12.3124 0.271363 0)
(11.9763 0.337419 0)
(11.6652 0.340122 0)
(11.2205 0.440434 0)
(11.0357 0.395354 0)
(10.8139 0.391742 0)
(10.6171 0.271334 0)
(10.5726 0.170097 0)
(10.5159 0.103175 0)
(10.7888 -0.0201502 0)
(10.9371 -0.0250108 0)
(11.3453 -0.104332 0)
(11.6075 -0.0584184 0)
(11.9245 -0.02937 0)
(12.1716 0.0565903 0)
(12.1939 0.208452 0)
(12.2223 0.257215 0)
(11.8286 0.406749 0)
(11.3929 0.401274 0)
(10.7646 0.594871 0)
(10.0902 0.603749 0)
(9.83808 0.620951 0)
(9.30217 0.536454 0)
(9.58109 0.322006 0)
(9.51003 0.286709 0)
(9.94661 0.11265 0)
(10.3819 0.162032 0)
(14.0743 -0.475904 0)
(14.0158 -0.346336 0)
(13.9539 -0.199127 0)
(13.8216 -0.0272941 0)
(13.7133 0.0179223 0)
(13.5231 0.0928097 0)
(13.3868 -0.0358285 0)
(13.1984 -0.0134997 0)
(13.0943 -0.203857 0)
(13.0935 -0.128411 0)
(13.1424 -0.191777 0)
(13.2851 -0.11672 0)
(13.3179 -0.0146607 0)
(13.3678 0.0677255 0)
(13.1712 0.28279 0)
(12.9358 0.200383 0)
(12.6084 0.300989 0)
(12.3607 0.1044 0)
(12.1523 0.0646375 0)
(11.9708 -0.0839528 0)
(11.9103 -0.219266 0)
(11.966 -0.203599 0)
(12.0705 -0.420896 0)
(12.3394 -0.350574 0)
(12.5427 -0.584341 0)
(12.8842 -0.542791 0)
(13.1108 -0.606351 0)
(13.4463 -0.472468 0)
(13.6344 -0.186408 0)
(13.7715 0.108355 0)
(13.6514 0.528125 0)
(13.2878 0.58438 0)
(12.938 0.614106 0)
(12.2963 0.239334 0)
(11.9712 -0.0065952 0)
(11.4613 -0.284323 0)
(11.3504 -0.63851 0)
(11.4052 -0.614299 0)
(11.4754 -0.926434 0)
(12.004 -0.562994 0)
(14.0102 0.147282 0)
(14.1164 0.0465077 0)
(13.9803 0.22676 0)
(14.0989 0.370683 0)
(13.7071 0.466818 0)
(13.7498 0.646522 0)
(13.349 0.481575 0)
(13.3565 0.494468 0)
(13.1132 0.222536 0)
(13.1256 0.162353 0)
(13.1128 -0.0300348 0)
(13.0318 -0.0561945 0)
(13.4476 0.108794 0)
(13.364 0.227042 0)
(13.8029 0.712643 0)
(13.3634 0.76171 0)
(13.5789 1.12199 0)
(13.1803 0.976326 0)
(13.2818 0.866827 0)
(13.1716 0.451182 0)
(12.9701 -0.116317 0)
(13.0457 -0.292312 0)
(12.4377 -0.659814 0)
(12.4988 -0.385309 0)
(11.8646 -0.549655 0)
(11.8456 -0.446131 0)
(11.8084 -0.455583 0)
(11.8816 -0.585073 0)
(12.553 -0.0546482 0)
(12.8301 0.0242192 0)
(13.6707 0.910939 0)
(13.6579 1.1717 0)
(13.8928 1.79885 0)
(13.3458 1.96868 0)
(13.1046 1.68194 0)
(12.7328 1.37622 0)
(12.402 0.210935 0)
(12.4088 -0.0651716 0)
(12.2014 -0.81491 0)
(12.3816 -0.610995 0)
(9.29178 0.302823 0)
(9.56152 0.0340948 0)
(10.2839 0.0326559 0)
(9.56847 0.188676 0)
(10.4627 0.137326 0)
(10.0871 0.261654 0)
(9.56016 0.342943 0)
(9.68257 0.416161 0)
(9.07853 0.377531 0)
(9.07195 0.195385 0)
(8.2377 0.0343858 0)
(8.84716 -0.204043 0)
(8.56475 -0.33469 0)
(9.58216 -0.180934 0)
(10.0783 -0.00971615 0)
(10.3632 0.177851 0)
(11.1367 0.338226 0)
(10.7122 0.360313 0)
(11.1465 0.363249 0)
(9.56164 0.322878 0)
(8.90763 0.491645 0)
(7.25784 0.62719 0)
(6.07282 0.654755 0)
(5.88168 0.451827 0)
(4.82908 -0.0329466 0)
(5.73898 -0.456004 0)
(5.69615 -0.936444 0)
(6.41672 -1.2168 0)
(7.78977 -1.11036 0)
(8.18792 -1.07332 0)
(9.97133 -0.457372 0)
(10.5088 -0.0737877 0)
(11.826 0.47395 0)
(12.3987 0.657589 0)
(12.7424 0.571333 0)
(12.9436 0.416577 0)
(11.8899 0.0812758 0)
(11.6675 0.175683 0)
(10.3312 -0.195749 0)
(10.0278 -0.294695 0)
(12.4842 0.48561 -1.02625e-17)
(7.76391 -0.759766 -1.74537e-17)
(11.8368 -0.219542 3.04267e-17)
(4.69666 -4.68762 -8.23787e-17)
(11.9733 -0.609678 1.03994e-17)
(8.26069 0.796991 1.77506e-17)
(11.1018 -0.0720769 -3.08964e-17)
(5.14617 4.56217 8.36204e-17)
(-5.82287 1.69669 0)
(5.8342 4.15825 0)
(-10.1207 -0.870067 0)
(3.75796 -2.6482 0)
(0.240035 -2.44348 3.27042e-17)
(-3.95582 3.3464 0)
(7.92158 -2.09901 0)
(-2.2961 -3.05284 0)
(-0.455977 -0.332327 0)
(-1.18066 0.634469 0)
(0.546525 -1.00996 0)
(1.35664 0.338911 0)
(-0.910703 1.55865 0)
(0.414142 -0.241615 0)
(0.111289 0.480982 0)
(1.01704 1.58964 0)
(0.476113 0.947796 0)
(0.608866 0.333783 0)
(1.27516 -0.100435 0)
(1.57989 -0.625098 0)
(1.83822 -0.849968 0)
(3.21839 -0.550365 0)
(3.2948 -0.233724 0)
(3.33788 -0.0305508 0)
(3.83189 0.465926 0)
(3.79871 0.977658 0)
(3.46944 1.38236 0)
(3.10328 1.51737 0)
(2.65288 1.43537 0)
(2.67904 1.33265 0)
(2.64648 0.669759 0)
(2.48603 0.105138 0)
(2.85703 -0.60625 0)
(3.06467 -1.24682 0)
(3.13974 -1.65753 0)
(3.59227 -1.94775 0)
(3.96973 -1.98619 0)
(4.33134 -1.9233 0)
(5.21453 -1.33757 0)
(5.62215 -0.516434 0)
(6.10193 0.218089 0)
(5.89314 0.888769 0)
(5.72986 1.31353 0)
(4.96823 1.33235 0)
(4.9384 1.09323 0)
(4.75462 0.879301 0)
(4.58079 -0.146226 0)
(5.23548 -0.440451 0)
(-2.00136 2.99346 0)
(1.22192 -1.55364 0)
(-1.10517 -1.26593 0)
(-1.36877 1.09976 0)
(-0.271731 0.111396 0)
(1.62425 -1.01116 0)
(-1.0353 0.155439 0)
(1.03706 0.240745 0)
(1.306 -0.079038 0)
(2.01275 -0.588864 0)
(2.2093 -0.99217 0)
(2.42553 -1.03672 0)
(2.08663 -1.16543 0)
(2.4213 -1.19936 0)
(2.33684 -0.599115 0)
(2.49112 -0.00714051 0)
(2.79836 0.572167 0)
(3.0323 1.01026 0)
(3.34777 1.35242 0)
(3.89351 1.53397 0)
(4.07202 1.50877 0)
(5.05322 1.19783 0)
(5.64216 0.635954 0)
(5.80972 0.185582 0)
(6.54193 -0.431646 0)
(6.29926 -0.820352 0)
(6.02077 -0.971356 0)
(5.59234 -1.39296 0)
(4.78084 -1.65425 0)
(3.82431 -1.76404 0)
(3.6089 -1.24521 0)
(3.45556 -0.570871 0)
(3.5405 0.367979 0)
(3.62817 1.01075 0)
(3.87574 1.21862 0)
(4.13044 1.14997 0)
(4.30849 0.772402 0)
(4.94389 0.296215 0)
(5.152 -0.538023 0)
(4.93339 -0.645954 0)
(12.3734 -1.50071 0)
(7.78466 2.49464 0)
(13.2599 -0.683128 0)
(9.72931 6.38256 0)
(11.049 -1.36587 0)
(8.84942 2.91057 0)
(11.3337 0.0359173 0)
(10.5322 4.05991 0)
(10.1112 -0.532526 0)
(9.7411 1.35359 0)
(10.3338 0.286782 0)
(10.802 1.21737 0)
(9.96825 -0.104771 0)
(9.90533 0.248877 0)
(10.246 0.100657 0)
(10.802 0.243663 0)
(13.5405 5.3655 3.33695e-17)
(15.0279 4.35367 -6.18107e-17)
(12.8889 2.03349 0)
(12.9349 0.569423 0)
(11.6527 0.517411 0)
(12.4964 -0.0328277 0)
(11.4878 0.230875 0)
(12.1981 0.190435 0)
(11.598 2.98801 0)
(10.4426 1.84496 0)
(8.7767 0.336917 0)
(11.5727 0.605757 0)
(12.522 -0.681315 0)
(12.775 -0.592571 0)
(13.1424 -0.413128 0)
(13.6116 -0.671155 0)
(13.0946 0.0126904 0)
(13.5675 0.30532 0)
(13.846 0.504874 0)
(13.9764 0.48641 0)
(12.818 0.200184 0)
(13.1237 0.141985 0)
(13.3503 0.0877524 0)
(13.3689 -0.075353 0)
(9.68314 0.411476 0)
(9.71842 0.437617 0)
(10.0346 0.247118 0)
(9.77267 0.397492 0)
(8.72629 0.282845 0)
(9.62119 0.141175 0)
(9.6591 0.291389 0)
(9.62213 0.285572 0)
(10.2814 0.119305 0)
(10.4614 -0.137635 0)
(11.1824 -0.316733 0)
(10.8734 -0.511647 0)
(10.8707 -0.529011 0)
(10.1315 -0.439015 0)
(9.51866 -0.356801 0)
(9.0883 -0.174382 0)
(8.39864 0.0612954 0)
(8.6017 0.433272 0)
(8.31736 0.663317 0)
(9.12803 0.771429 0)
(9.52482 0.748136 0)
(10.1903 0.49324 0)
(11.2571 0.0848841 0)
(11.5341 -0.300974 0)
(12.6643 -0.760383 0)
(12.7692 -1.06402 0)
(13.9525 -1.23246 0)
(14.4556 -1.05134 0)
(14.7879 -0.788885 0)
(13.8544 -0.594903 0)
(11.1162 -0.570593 0)
(9.81024 -0.354426 0)
(7.51703 0.26315 0)
(7.87272 0.651729 0)
(7.3347 0.845556 0)
(8.07696 0.875297 0)
(8.88456 0.499225 0)
(9.16048 0.2789 0)
(10.3259 -0.0601152 0)
(10.2375 -0.185084 0)
(13.7488 -0.490697 0)
(13.6088 -0.432364 0)
(13.6099 -0.378556 0)
(13.4927 -0.335333 0)
(13.508 -0.223623 0)
(13.4105 -0.227303 0)
(13.7373 -0.419354 0)
(13.6079 -0.475747 0)
(13.7582 -0.818846 0)
(13.4992 -0.994787 0)
(13.2722 -1.32039 0)
(12.8978 -1.27265 0)
(12.6449 -1.08662 0)
(12.6048 -0.703236 0)
(12.2651 -0.0820483 0)
(12.3026 0.228651 0)
(12.1247 0.623518 0)
(12.3903 0.541188 0)
(12.5977 0.591645 0)
(12.8559 0.377662 0)
(13.3501 0.0594577 0)
(13.4162 -0.142386 0)
(13.9488 -0.747243 0)
(13.5544 -0.93787 0)
(13.5378 -1.56812 0)
(12.4737 -1.64277 0)
(11.7646 -1.97511 0)
(10.7967 -1.72748 0)
(10.2099 -0.825461 0)
(10.3291 0.150518 0)
(9.80611 1.44285 0)
(10.4696 1.51853 0)
(10.2256 1.71539 0)
(10.7688 1.20604 0)
(11.0454 0.769792 0)
(11.4059 0.347848 0)
(11.9687 -0.504663 0)
(12.0262 -0.602273 0)
(12.2413 -1.32686 0)
(12.2224 -1.03292 0)
(13.9807 0.455159 0)
(13.9357 0.33964 0)
(13.8308 0.367941 0)
(13.8083 0.310748 0)
(13.7452 0.29865 0)
(13.7573 0.30842 0)
(13.7765 0.182911 0)
(13.733 0.11251 0)
(13.5841 -0.069524 0)
(13.3577 -0.0680543 0)
(13.1153 -0.115359 0)
(12.8247 0.027784 0)
(12.5304 0.161708 0)
(12.3586 0.192459 0)
(12.2693 0.393905 0)
(12.4036 0.414741 0)
(12.4978 0.657968 0)
(12.8 0.515638 0)
(13.023 0.510795 0)
(13.3464 0.303572 0)
(13.5477 0.11792 0)
(13.5482 -0.0127782 0)
(13.4067 -0.325719 0)
(13.0203 -0.315817 0)
(12.8668 -0.434829 0)
(12.4537 -0.125436 0)
(12.2171 -0.121794 0)
(11.5105 -0.065249 0)
(11.0172 0.0809799 0)
(10.8125 0.181544 0)
(10.8516 0.742519 0)
(11.3454 0.750523 0)
(11.7304 0.858588 0)
(12.3315 0.587416 0)
(12.6394 0.27678 0)
(12.9792 0.0129273 0)
(13.0787 -0.35812 0)
(12.9572 -0.401057 0)
(12.9428 -0.478745 0)
(12.3928 -0.222906 0)
(13.3964 -0.143963 0)
(13.3492 -0.285341 0)
(13.2919 -0.288692 0)
(13.2353 -0.345371 0)
(13.183 -0.359321 0)
(13.1537 -0.336482 0)
(13.062 -0.39539 0)
(13.0004 -0.402544 0)
(12.8201 -0.479473 0)
(12.5476 -0.428327 0)
(12.2064 -0.511972 0)
(11.8508 -0.503704 0)
(11.6129 -0.515964 0)
(11.4244 -0.469479 0)
(11.4738 -0.33231 0)
(11.4883 -0.277237 0)
(11.6492 -0.141618 0)
(11.8215 -0.171494 0)
(12.0842 -0.136222 0)
(12.3302 -0.174332 0)
(12.3899 -0.241562 0)
(12.385 -0.280387 0)
(12.0427 -0.402871 0)
(11.6954 -0.393595 0)
(11.191 -0.58291 0)
(10.7361 -0.605128 0)
(10.3645 -0.685487 0)
(9.86702 -0.550023 0)
(9.78797 -0.280208 0)
(9.61336 -0.126219 0)
(10.1242 0.117428 0)
(10.5004 0.117537 0)
(11.1556 0.172762 0)
(11.6042 0.0576059 0)
(11.8466 -0.0399328 0)
(11.9525 -0.145556 0)
(11.6356 -0.314389 0)
(11.2569 -0.350402 0)
(10.7848 -0.502166 0)
(10.1312 -0.410126 0)
)
;

boundaryField
{
    inlet
    {
        type            fixedValue;
        value           uniform (10 0 0);
    }
    outlet
    {
        type            zeroGradient;
    }
    obstacle
    {
        type            noSlip;
    }
    upperWall
    {
        type            noSlip;
    }
    lowerWall
    {
        type            noSlip;
    }
    frontAndBack
    {
        type            empty;
    }
}


// ************************************************************************* //
