/*--------------------------------*- C++ -*----------------------------------*\
  =========                 |
  \\      /  F ield         | OpenFOAM: The Open Source CFD Toolbox
   \\    /   O peration     | Website:  https://openfoam.org
    \\  /    A nd           | Version:  10
     \\/     M anipulation  |
\*---------------------------------------------------------------------------*/
FoamFile
{
    format      ascii;
    class       surfaceScalarField;
    location    "7";
    object      phi;
}
// * * * * * * * * * * * * * * * * * * * * * * * * * * * * * * * * * * * * * //

dimensions      [0 3 -1 0 0 0 0];

internalField   nonuniform List<scalar> 
760
(
-1.05896e-05
1.0589e-05
-3.44473e-05
2.38576e-05
-6.29888e-05
2.85416e-05
-9.26811e-05
2.96922e-05
-0.000122366
2.96848e-05
-0.00015162
2.92545e-05
-0.000180034
2.84135e-05
-0.000206974
2.69406e-05
-0.00023151
2.45351e-05
-0.000252362
2.08527e-05
-0.000267889
1.55268e-05
-0.000276102
8.21327e-06
-0.000274778
-1.3238e-06
-0.00026169
-1.30884e-05
-0.000235117
-2.65731e-05
-0.000194527
-4.05897e-05
-0.000141668
-5.28589e-05
-8.20807e-05
-5.95877e-05
-2.71759e-05
-5.49048e-05
-2.71759e-05
-2.5306e-05
3.5895e-05
-7.16439e-05
7.01955e-05
-0.000125264
8.21612e-05
-0.00018038
8.48087e-05
-0.000234745
8.40503e-05
-0.000287241
8.17497e-05
-0.000336861
7.80339e-05
-0.00038237
7.2449e-05
-0.000422164
6.433e-05
-0.000454214
5.29018e-05
-0.000476021
3.73342e-05
-0.000484674
1.68662e-05
-0.000477216
-8.78173e-06
-0.000450456
-3.98483e-05
-0.000402222
-7.48075e-05
-0.000332111
-0.0001107
-0.000243065
-0.000141905
-0.00014371
-0.000158943
-5.12812e-05
-0.000147334
-7.84571e-05
-3.17592e-05
6.76541e-05
-8.81896e-05
0.000126626
-0.000152744
0.000146716
-0.000218614
0.000150678
-0.000283199
0.000148636
-0.000345204
0.000143755
-0.000403489
0.000136319
-0.0004567
0.00012566
-0.000503118
0.000110748
-0.000540557
9.03406e-05
-0.000566329
6.3106e-05
-0.000577288
2.78256e-05
-0.000569605
-1.64647e-05
-0.000539503
-6.99506e-05
-0.000483881
-0.000130429
-0.00040152
-0.000193062
-0.000295181
-0.000248243
-0.000174925
-0.000279199
-6.21614e-05
-0.000260097
-0.000140619
-3.42098e-05
0.000101864
-9.50709e-05
0.000187487
-0.000164486
0.000216131
-0.000235213
0.000221405
-0.000304641
0.000218064
-0.000371568
0.000210681
-0.00043498
0.000199731
-0.000493665
0.000184345
-0.000546031
0.000163115
-0.000589954
0.000134263
-0.000622623
9.57744e-05
-0.000640466
4.56688e-05
-0.000639124
-1.78069e-05
-0.000613128
-9.59467e-05
-0.000557416
-0.000186141
-0.000468491
-0.000281986
-0.000347689
-0.000369046
-0.000206472
-0.000420416
-7.19611e-05
-0.000394608
-0.00021258
-3.51912e-05
0.000137055
-9.8469e-05
0.000250765
-0.00017077
0.000288433
-0.000244622
0.000295257
-0.000317527
0.000290969
-0.000388518
0.000281672
-0.000456869
0.000268082
-0.000521681
0.000249158
-0.00058167
0.000223103
-0.000634931
0.000187524
-0.000678648
0.000139491
-0.000708751
7.57722e-05
-0.000719973
-6.58505e-06
-0.000704633
-0.000111286
-0.000654423
-0.000236351
-0.000561699
-0.000374711
-0.000424151
-0.000506593
-0.000253587
-0.000590981
-8.62957e-05
-0.000561899
-0.000298875
-3.58007e-05
0.000172856
-0.000101028
0.000315992
-0.00017584
0.000363245
-0.000252567
0.000371983
-0.000328878
0.00036728
-0.000404134
0.000356929
-0.000478032
0.00034198
-0.000550167
0.000321292
-0.000619777
0.000292713
-0.000685441
0.000253189
-0.000744638
0.000198688
-0.00079311
0.000124244
-0.000824357
2.46622e-05
-0.000828576
-0.000107067
-0.00079239
-0.000272537
-0.000701312
-0.000465789
-0.000545194
-0.000662711
-0.000331885
-0.000804289
-0.000110915
-0.000782869
-0.00040979
-3.63702e-05
0.000209226
-0.000103574
0.000383196
-0.000180951
0.000440622
-0.000260599
0.000451631
-0.000340384
0.000447065
-0.000420081
0.000436625
-0.000499946
0.000421845
-0.000580278
0.000401625
-0.000661158
0.000373593
-0.000742083
0.000334113
-0.000821385
0.00027799
-0.000895318
0.000198178
-0.000956566
8.59102e-05
-0.00099387
-6.97632e-05
-0.000987887
-0.00027852
-0.000913686
-0.000539989
-0.00074509
-0.000831307
-0.000472953
-0.00107643
-0.000159982
-0.00109584
-0.000569773
-3.69596e-05
0.000246186
-0.000106267
0.000452503
-0.000186269
0.000520625
-0.000268753
0.000534114
-0.000351792
0.000530104
-0.000435641
0.000520474
-0.000521256
0.00050746
-0.000609878
0.000490247
-0.000702814
0.000466529
-0.000801087
0.000432386
-0.000904792
0.000381695
-0.00101196
0.000305347
-0.00111658
0.00019053
-0.00120829
2.19457e-05
-0.00126256
-0.000224246
-0.00124212
-0.00056043
-0.00108947
-0.000983958
-0.000745306
-0.00142059
-0.000270431
-0.00157072
-0.000840203
-3.76043e-05
0.00028379
-0.000109166
0.000524065
-0.000191752
0.00060321
-0.000276719
0.000619081
-0.000362335
0.000615721
-0.000449372
0.000607511
-0.000539581
0.000597669
-0.000635361
0.000586027
-0.00073966
0.000570828
-0.000855795
0.000548521
-0.000987003
0.000512903
-0.00113542
0.000453765
-0.00130019
0.0003553
-0.00147346
0.000195215
-0.00164118
-5.65295e-05
-0.00174771
-0.000453895
-0.00167585
-0.00105582
-0.00125209
-0.00184435
-0.000507488
-0.00231532
-0.00134769
-3.84366e-05
0.000322227
-0.000112508
0.000598137
-0.000197555
0.000688257
-0.000284361
0.000705886
-0.000371354
0.000702714
-0.000459816
0.000695973
-0.000552308
0.000690162
-0.000652455
0.000686173
-0.000765108
0.000683481
-0.000896576
0.000679989
-0.00105472
0.00067105
-0.00124875
0.000647796
-0.00148868
0.000595226
-0.0017833
0.000489837
-0.00212747
0.000287639
-0.00245802
-0.000123348
-0.00253439
-0.000979449
-0.0020089
-0.00236984
-0.000910884
-0.00341334
-0.00225858
-3.97826e-05
0.000362009
-0.000116902
0.000675256
-0.0002043
0.000775655
-0.000292043
0.000793629
-0.000378683
0.000789354
-0.000465958
0.000783248
-0.000557124
0.000781327
-0.000656875
0.000785925
-0.000771851
0.000798457
-0.000911466
0.000819604
-0.00108916
0.000848741
-0.00132427
0.00088291
-0.0016442
0.000915159
-0.0020821
0.000927738
-0.00264248
0.000848014
-0.00319335
0.00042752
-0.00337819
-0.000794609
-0.00275622
-0.00299181
-0.00143703
-0.00473252
-0.0036956
-4.23136e-05
0.000404323
-0.000123588
0.00075653
-0.000213347
0.000865414
-0.000300921
0.000881204
-0.000385015
0.000873448
-0.000467746
0.000865979
-0.000552798
0.000866379
-0.000645448
0.000878575
-0.000753428
0.000906438
-0.000888406
0.000954582
-0.00106845
0.00102878
-0.00132194
0.0011364
-0.00169062
0.00128383
-0.00221582
0.00145294
-0.00288251
0.00151471
-0.00348105
0.00102606
-0.00363821
-0.000637449
-0.00308452
-0.0035455
-0.00188619
-0.00593085
-0.0055818
-4.70835e-05
0.000451406
-0.000134465
0.000843912
-0.000226963
0.000957912
-0.000313317
0.000967558
-0.000392408
0.000952539
-0.000466659
0.00094023
-0.000539926
0.000939646
-0.000617126
0.000955775
-0.000705499
0.000994811
-0.000816368
0.00106545
-0.000967828
0.00118024
-0.00118795
0.00135652
-0.00151541
0.0016113
-0.00197251
0.00191004
-0.00250857
0.00205077
-0.00293624
0.00145373
-0.00305942
-0.000514264
-0.00278457
-0.00382035
-0.00189904
-0.00681638
-0.00748084
-5.7301e-05
0.000508707
-0.00015441
0.000941021
-0.000249282
0.00105278
-0.000331837
0.00105011
-0.000402846
0.00102355
-0.00046516
0.00100254
-0.000521543
0.000996028
-0.000575536
0.00100977
-0.000631909
0.00105118
-0.000697715
0.00113126
-0.000783878
0.00126641
-0.000904557
0.0014772
-0.0010765
0.00178324
-0.00129377
0.0021273
-0.00152301
0.00228001
-0.00168601
0.00161673
-0.00179337
-0.000406904
-0.00186988
-0.00374384
-0.00144129
-0.00724497
-0.00892213
-6.98741e-05
0.000578581
-0.000180265
0.00105141
-0.000281497
0.00115402
-0.000364116
0.00113273
-0.000426884
0.00108632
-0.000473676
0.00104934
-0.000507598
0.00102995
-0.00053065
0.00103282
-0.000543875
0.00106441
-0.000547642
0.00113502
-0.000542213
0.00126098
-0.00052306
0.00145805
-0.000483773
0.00174396
-0.000402665
0.00204619
-0.000297847
0.00217519
-0.000238457
0.00155734
-0.000329093
-0.000316269
-0.000746271
-0.00332666
-0.000860348
-0.00713089
-0.00978248
-0.0001372
0.000715781
-0.000262248
0.00117646
-0.000350003
0.00124177
-0.000409118
0.00119185
-0.000450535
0.00112773
-0.000478014
0.00107682
-0.000490872
0.00104281
-0.000486136
0.00102808
-0.000459378
0.00103765
-0.000403283
0.00107893
-0.000308013
0.00116571
-0.000156908
0.00130694
7.33491e-05
0.0015137
0.0003846
0.00173494
0.000748499
0.00181129
0.000988995
0.00131684
0.000875642
-0.000202916
0.000151409
-0.00260243
-0.00035318
-0.0066263
-0.0101357
-8.91937e-05
0.000804975
-0.00027853
0.0013658
-0.000407778
0.00137102
-0.000484868
0.00126894
-0.000523966
0.00116683
-0.000535026
0.00108788
-0.000521244
0.00102903
-0.000481217
0.000988057
-0.000409964
0.0009664
-0.000295903
0.000964866
-0.000124228
0.000994034
0.000125705
0.00105701
0.000474549
0.00116485
0.000933392
0.0012761
0.00143756
0.00130713
0.0017782
0.000976198
0.00163269
-5.74004e-05
0.00085376
-0.00182351
0.000174561
-0.0059471
-0.0099611
-0.000383963
0.00118894
-0.00045508
0.00143691
-0.000522319
0.00143826
-0.000580395
0.00132701
-0.000592358
0.00117879
-0.000564293
0.00105981
-0.000501009
0.000965741
-0.000401977
0.000889025
-0.000268286
0.000832709
-9.14289e-05
0.000788009
0.000136192
0.000766413
0.000431262
0.000761939
0.00080803
0.000788086
0.00126175
0.000822377
0.00175886
0.000810018
0.00211204
0.000623021
0.00218455
-0.000129912
0.00174039
-0.00137934
0.000933401
-0.00514011
-0.0090277
-0.00136068
0.00254962
-0.00132681
0.00140303
-0.0010762
0.00118765
-0.000714402
0.000965213
-0.000331019
0.000795411
5.65468e-05
0.000672246
0.000436389
0.000585899
0.000807186
0.000518228
0.00117016
0.000469738
0.00152973
0.000428434
0.00189511
0.000401038
0.00227411
0.000382938
0.00269302
0.000369169
0.00315371
0.000361694
0.00366632
0.0002974
0.00411644
0.000172906
0.00427196
-0.000285436
0.00407956
-0.00118694
0.00256947
-0.00363002
-0.00645823
0.00254962
0.00395266
0.00514031
0.00610552
0.00690093
0.00757318
0.00815908
0.00867731
0.00914705
0.00957548
0.00997652
0.0103595
0.0107286
0.0110903
0.0113877
0.0115606
0.0112752
0.0100883
0.00645823
)
;

boundaryField
{
    movingWall
    {
        type            calculated;
        value           uniform 0;
    }
    fixedWalls
    {
        type            calculated;
        value           uniform 0;
    }
    frontAndBack
    {
        type            empty;
        value           nonuniform List<scalar> 0();
    }
}


// ************************************************************************* //
