/*--------------------------------*- C++ -*----------------------------------*\
  =========                 |
  \\      /  F ield         | OpenFOAM: The Open Source CFD Toolbox
   \\    /   O peration     | Website:  https://openfoam.org
    \\  /    A nd           | Version:  10
     \\/     M anipulation  |
\*---------------------------------------------------------------------------*/
FoamFile
{
    format      ascii;
    class       surfaceScalarField;
    location    "6.425";
    object      phi;
}
// * * * * * * * * * * * * * * * * * * * * * * * * * * * * * * * * * * * * * //

dimensions      [0 3 -1 0 0 0 0];

internalField   nonuniform List<scalar> 
760
(
-9.78247e-06
9.7814e-06
-3.21055e-05
2.2323e-05
-5.86998e-05
2.65943e-05
-8.61637e-05
2.74639e-05
-0.000113385
2.72208e-05
-0.000139926
2.65418e-05
-0.000165367
2.54406e-05
-0.000189103
2.37357e-05
-0.000210292
2.11893e-05
-0.00022783
1.75376e-05
-0.00024034
1.25107e-05
-0.000246208
5.86807e-06
-0.000243671
-2.53747e-06
-0.000231022
-1.26488e-05
-0.000206981
-2.40406e-05
-0.000171195
-3.57866e-05
-0.000125057
-4.61378e-05
-7.29949e-05
-5.20622e-05
-2.45913e-05
-4.84035e-05
-2.45913e-05
-2.35663e-05
3.33477e-05
-6.6858e-05
6.56147e-05
-0.000116648
7.63843e-05
-0.000167418
7.82335e-05
-0.000217045
7.68485e-05
-0.00026445
7.3946e-05
-0.000308664
6.96552e-05
-0.000348549
6.36208e-05
-0.000382693
5.53335e-05
-0.000409373
4.42172e-05
-0.000426527
2.96645e-05
-0.000431863
1.12045e-05
-0.000423032
-1.13691e-05
-0.00039765
-3.80304e-05
-0.000354145
-6.75461e-05
-0.000292328
-9.76036e-05
-0.000214571
-0.000123895
-0.00012777
-0.000138863
-4.63205e-05
-0.000129853
-7.09119e-05
-2.94559e-05
6.28037e-05
-8.19168e-05
0.000118076
-0.000141558
0.000136026
-0.00020194
0.000138615
-0.000260633
0.000135542
-0.000316398
0.000129711
-0.000368147
0.000121404
-0.000414633
0.000110107
-0.000454339
9.50392e-05
-0.000485408
7.52861e-05
-0.000505643
4.98997e-05
-0.00051251
1.80714e-05
-0.000503004
-2.08747e-05
-0.000474315
-6.67201e-05
-0.00042419
-0.000117671
-0.000351862
-0.000169932
-0.00025956
-0.000216196
-0.000155213
-0.00024321
-5.64002e-05
-0.000228666
-0.000127312
-3.16879e-05
9.44916e-05
-8.82e-05
0.000174588
-0.00015226
0.000200086
-0.000217035
0.00020339
-0.000280082
0.000198589
-0.000340235
0.000189865
-0.000396499
0.000177668
-0.000447726
0.000161334
-0.000492478
0.000139791
-0.000528912
0.00011172
-0.000554689
7.56769e-05
-0.000566941
3.0324e-05
-0.000562186
-2.56304e-05
-0.000536302
-9.26035e-05
-0.000485581
-0.000168392
-0.000407597
-0.000247916
-0.00030361
-0.000320183
-0.000182463
-0.000364357
-6.58398e-05
-0.000345289
-0.000193152
-3.27404e-05
0.000127232
-9.17249e-05
0.000233572
-0.000158689
0.000267049
-0.00022656
0.000271261
-0.000292979
0.000265008
-0.000356962
0.000253848
-0.000417733
0.000238439
-0.000474372
0.000217973
-0.000525646
0.000191065
-0.000569833
0.000155908
-0.000604512
0.000110356
-0.000626363
5.21749e-05
-0.000631135
-2.08586e-05
-0.000612961
-0.000110777
-0.000565705
-0.000215649
-0.000483974
-0.000329647
-0.000366486
-0.000437671
-0.000222443
-0.0005084
-7.98426e-05
-0.000487889
-0.000272994
-3.36072e-05
0.000160839
-9.48839e-05
0.000294849
-0.000164669
0.000336834
-0.000235654
0.000342246
-0.000305603
0.000334957
-0.000373793
0.000322038
-0.00043977
0.000304416
-0.00050298
0.000281183
-0.00056256
0.000250644
-0.00061709
0.000210438
-0.000664257
0.000157522
-0.000700363
8.82811e-05
-0.000720604
-6.17194e-07
-0.000716458
-0.000114924
-0.000678482
-0.000253625
-0.000596268
-0.000411861
-0.000463289
-0.00057065
-0.000286698
-0.00068499
-0.000103295
-0.000671292
-0.00037629
-3.45641e-05
0.000195403
-9.83648e-05
0.000358649
-0.000171239
0.000409708
-0.000245597
0.000416604
-0.000319352
0.000408713
-0.000392113
0.000394798
-0.000463867
0.000376171
-0.0005346
0.000351915
-0.000604059
0.000320103
-0.000671458
0.000277837
-0.000735016
0.00022108
-0.000791272
0.000144538
-0.00083393
4.204e-05
-0.000853898
-9.4955e-05
-0.000836082
-0.000271441
-0.000762578
-0.000485364
-0.000616616
-0.000716612
-0.000396327
-0.000905279
-0.000146704
-0.000920916
-0.000522993
-3.56562e-05
0.00023106
-0.00010229
0.000425283
-0.000178517
0.000485936
-0.000256388
0.000494475
-0.000333983
0.000486308
-0.000411313
0.000472128
-0.000488935
0.000453793
-0.000567577
0.000430557
-0.000647919
0.000400446
-0.000730279
0.000360197
-0.000814056
0.000304856
-0.000896782
0.000227264
-0.000972487
0.000117745
-0.00103142
-3.60183e-05
-0.00105369
-0.000249171
-0.00101149
-0.000527567
-0.000869326
-0.000858777
-0.000598576
-0.00117603
-0.000237321
-0.00128217
-0.000760314
-3.69174e-05
0.000267977
-0.000106716
0.000495081
-0.000186471
0.000565691
-0.000267764
0.000575769
-0.000348849
0.000567393
-0.000430195
0.000553474
-0.00051304
0.000536638
-0.00059906
0.000516577
-0.000690223
0.000491609
-0.000788557
0.000458532
-0.000895645
0.000411944
-0.00101163
0.000343254
-0.00113339
0.000239496
-0.00125246
8.30555e-05
-0.00135006
-0.000151569
-0.00138823
-0.000489398
-0.00129896
-0.00094805
-0.000985845
-0.00148914
-0.000434502
-0.00183351
-0.00119482
-3.84724e-05
0.000306449
-0.000111864
0.000568473
-0.000195247
0.000649074
-0.000279613
0.000660135
-0.000363384
0.000651163
-0.000447516
0.000637605
-0.000533987
0.000623109
-0.000625553
0.000608142
-0.000725789
0.000591845
-0.000839105
0.000571847
-0.00097053
0.00054337
-0.00112506
0.000497787
-0.00130627
0.000420703
-0.00151329
0.000290073
-0.00174066
7.58031e-05
-0.00194418
-0.000285878
-0.00199638
-0.000895851
-0.00165474
-0.00183079
-0.000800057
-0.00268819
-0.00199487
-4.06236e-05
0.000347073
-0.000118289
0.000646139
-0.000205396
0.00073618
-0.00029223
0.000746969
-0.000377391
0.000736324
-0.000462323
0.000722537
-0.000549713
0.0007105
-0.000643362
0.000701792
-0.000748495
0.000696978
-0.000872238
0.000695589
-0.00102421
0.00069534
-0.00121711
0.000690687
-0.00146711
0.000670702
-0.00179357
0.00061653
-0.00220566
0.000487895
-0.00265615
0.000164619
-0.00290422
-0.000647789
-0.00249614
-0.00223886
-0.0012865
-0.00389784
-0.00328137
-4.3986e-05
0.000391059
-0.000127107
0.00072926
-0.000218109
0.000827182
-0.00030657
0.000835431
-0.000391341
0.000821095
-0.000474342
0.000805537
-0.000558822
0.00079498
-0.000649343
0.000792313
-0.000752423
0.000800059
-0.00087761
0.000820776
-0.00103914
0.000856872
-0.00125856
0.000910108
-0.00156816
0.000980302
-0.00200965
0.00105802
-0.0026056
0.00108384
-0.0032427
0.000801723
-0.00356515
-0.000325344
-0.00306695
-0.00273706
-0.00174125
-0.00522354
-0.00502262
-4.95938e-05
0.000440653
-0.000140126
0.000819792
-0.000235435
0.000922491
-0.000324607
0.000924602
-0.00040681
0.000903298
-0.000484453
0.00088318
-0.000561199
0.000871726
-0.00064169
0.000872804
-0.000732657
0.000891026
-0.000844553
0.000932671
-0.000994135
0.00100646
-0.00120852
0.00112449
-0.00152908
0.00130086
-0.00199913
0.00152808
-0.00261543
0.00170013
-0.00321044
0.00139674
-0.0034387
-9.70852e-05
-0.00301748
-0.00315827
-0.00192812
-0.0063129
-0.00695074
-6.04034e-05
0.000501056
-0.000161743
0.000921132
-0.000261008
0.00102176
-0.000348499
0.00101209
-0.000425286
0.000980086
-0.000494364
0.000952258
-0.000558709
0.000936071
-0.000622185
0.00093628
-0.00069021
0.000959052
-0.000771131
0.00101359
-0.000878538
0.00111386
-0.00103338
0.00127933
-0.00126575
0.00153323
-0.00159396
0.0018563
-0.00199411
0.00210027
-0.00233583
0.00173846
-0.00248937
5.64565e-05
-0.00236271
-0.00328493
-0.00169713
-0.00697849
-0.00864786
-7.35624e-05
0.000574618
-0.000189202
0.00103677
-0.000296079
0.00112863
-0.000385307
0.00110132
-0.000456166
0.00105094
-0.000512828
0.00100892
-0.000558855
0.000982099
-0.00059701
0.000974435
-0.000629631
0.000991673
-0.000659554
0.00104352
-0.000691637
0.00114594
-0.000730793
0.00131849
-0.000785307
0.00158774
-0.00084459
0.00191558
-0.000910237
0.00216592
-0.000946277
0.0017745
-0.00103454
0.000144724
-0.00123874
-0.00308074
-0.00110733
-0.0071099
-0.00975519
-0.000140615
0.000715234
-0.000270806
0.00116696
-0.000365308
0.00122314
-0.000432969
0.00116898
-0.000484983
0.00110296
-0.000525212
0.00104915
-0.000553566
0.00101045
-0.000567989
0.000988858
-0.000565491
0.000989175
-0.000541076
0.0010191
-0.000488481
0.00109335
-0.00039592
0.00122593
-0.000249919
0.00144174
-3.40797e-05
0.00169974
0.000245455
0.00188639
0.000460657
0.0015593
0.00043985
0.00016553
-0.000127042
-0.00251384
-0.00048767
-0.00674927
-0.0102429
-9.18019e-05
0.000807036
-0.000285891
0.00136105
-0.000422731
0.00135998
-0.000510322
0.00125657
-0.000561738
0.00115438
-0.000586826
0.00107424
-0.00058944
0.00101307
-0.000569151
0.000968569
-0.000522043
0.000942067
-0.000437893
0.000934951
-0.000303359
0.000958816
-9.45536e-05
0.00101712
0.000212609
0.00113458
0.000633329
0.00127902
0.00113684
0.00138287
0.00154391
0.00115223
0.00153668
0.000172757
0.000820464
-0.00179762
0.000160021
-0.00608883
-0.0100828
-0.000386034
0.00119307
-0.000463461
0.00143848
-0.000538686
0.0014352
-0.000605546
0.00132343
-0.000626939
0.00117577
-0.000609107
0.0010564
-0.000557828
0.000961787
-0.000473358
0.000884099
-0.000357143
0.000825852
-0.000200986
0.000778795
3.78386e-06
0.000754045
0.000271861
0.000749044
0.000628615
0.000777823
0.00108179
0.000825849
0.00161631
0.000848352
0.00206143
0.000707109
0.00227291
-3.87233e-05
0.00185669
-0.00138141
0.000990599
-0.00522273
-0.00909224
-0.00135843
0.0025515
-0.0013247
0.00140476
-0.00107717
0.00118767
-0.00071907
0.000965328
-0.000338991
0.00079569
4.51264e-05
0.000672287
0.000420823
0.00058609
0.000786051
0.000518871
0.00114216
0.000469743
0.00149261
0.000428345
0.00184588
0.000400773
0.00221254
0.00038239
0.0026193
0.000371056
0.00307614
0.000369014
0.00361356
0.00031093
0.00412262
0.000198049
0.0043413
-0.000257398
0.00416057
-0.00120068
0.0026057
-0.00366786
-0.00648655
0.0025515
0.00395625
0.00514392
0.00610925
0.00690494
0.00757723
0.00816332
0.00868219
0.00915193
0.00958028
0.00998105
0.0103634
0.0107345
0.0111035
0.0114144
0.0116125
0.0113551
0.0101544
0.00648655
)
;

boundaryField
{
    movingWall
    {
        type            calculated;
        value           uniform 0;
    }
    fixedWalls
    {
        type            calculated;
        value           uniform 0;
    }
    frontAndBack
    {
        type            empty;
        value           nonuniform List<scalar> 0();
    }
}


// ************************************************************************* //
