/*--------------------------------*- C++ -*----------------------------------*\
  =========                 |
  \\      /  F ield         | OpenFOAM: The Open Source CFD Toolbox
   \\    /   O peration     | Website:  https://openfoam.org
    \\  /    A nd           | Version:  10
     \\/     M anipulation  |
\*---------------------------------------------------------------------------*/
FoamFile
{
    format      ascii;
    class       volVectorField;
    location    "0.375";
    object      U;
}
// * * * * * * * * * * * * * * * * * * * * * * * * * * * * * * * * * * * * * //

dimensions      [0 1 -1 0 0 0 0];

internalField   nonuniform List<vector> 
400
(
(-0.000166864 0.000165425 0)
(-0.000510433 0.000173979 0)
(-0.000854685 0.000165429 0)
(-0.00117643 0.000152358 0)
(-0.00146776 0.000135515 0)
(-0.00172166 0.000115429 0)
(-0.00193216 9.26722e-05 0)
(-0.00209448 6.78367e-05 0)
(-0.00220504 4.1513e-05 0)
(-0.00226145 1.42825e-05 0)
(-0.00226245 -1.32816e-05 0)
(-0.00220796 -4.06064e-05 0)
(-0.00209902 -6.71109e-05 0)
(-0.0019379 -9.21982e-05 0)
(-0.00172803 -0.000115255 0)
(-0.00147415 -0.000135663 0)
(-0.00118219 -0.000152815 0)
(-0.000859231 -0.000166154 0)
(-0.000513315 -0.000174893 0)
(-0.000167841 -0.000166382 0)
(-0.000184123 0.000516496 0)
(-0.000562802 0.000542673 0)
(-0.000941711 0.000515923 0)
(-0.00129563 0.000475034 0)
(-0.00161588 0.000422385 0)
(-0.00189477 0.00035966 0)
(-0.00212582 0.000288663 0)
(-0.00230387 0.000211247 0)
(-0.0024251 0.000129248 0)
(-0.00248693 4.44599e-05 0)
(-0.00248805 -4.13532e-05 0)
(-0.00242834 -0.000126434 0)
(-0.00230894 -0.000208996 0)
(-0.00213222 -0.000287195 0)
(-0.00190189 -0.000359129 0)
(-0.00162302 -0.000422857 0)
(-0.00130208 -0.000476475 0)
(-0.000946806 -0.000518199 0)
(-0.000566033 -0.000545539 0)
(-0.000185219 -0.000519498 0)
(-0.000193666 0.000895901 0)
(-0.000591907 0.000940543 0)
(-0.000990104 0.000893876 0)
(-0.00136157 0.000822644 0)
(-0.00169718 0.000731067 0)
(-0.00198899 0.000622152 0)
(-0.00223039 0.000499088 0)
(-0.00241618 0.000365099 0)
(-0.00254259 0.000223342 0)
(-0.0026071 7.68715e-05 0)
(-0.00260841 -7.13372e-05 0)
(-0.0025464 -0.000218326 0)
(-0.00242214 -0.000361078 0)
(-0.00223793 -0.000496457 0)
(-0.00199741 -0.000621189 0)
(-0.00170564 -0.000731894 0)
(-0.00136922 -0.000825209 0)
(-0.000996162 -0.000897941 0)
(-0.000595754 -0.000945672 0)
(-0.000194972 -0.000901278 0)
(-0.000208117 0.00129779 0)
(-0.000635896 0.00136176 0)
(-0.0010631 0.00129346 0)
(-0.00146082 0.00118949 0)
(-0.00181929 0.00105617 0)
(-0.00213016 0.000898048 0)
(-0.00238669 0.000719863 0)
(-0.00258375 0.000526311 0)
(-0.00271767 0.000321905 0)
(-0.00278606 0.000110935 0)
(-0.00278769 -0.00010247 0)
(-0.00272241 -0.000314222 0)
(-0.00259118 -0.000520135 0)
(-0.00239613 -0.000715801 0)
(-0.00214071 -0.000896532 0)
(-0.00182993 -0.0010574 0)
(-0.00147048 -0.0011934 0)
(-0.00107077 -0.0012997 0)
(-0.000640776 -0.00136966 0)
(-0.000209774 -0.00130608 0)
(-0.00022836 0.00173424 0)
(-0.000697425 0.00181873 0)
(-0.00116497 0.00172605 0)
(-0.00159895 0.00158552 0)
(-0.00198868 0.00140603 0)
(-0.00232537 0.00119401 0)
(-0.0026022 0.000956033 0)
(-0.00281422 0.000698413 0)
(-0.00295805 0.000427059 0)
(-0.00303156 0.000147443 0)
(-0.00303365 -0.000135266 0)
(-0.00296415 -0.000415987 0)
(-0.0028238 -0.000689478 0)
(-0.0026144 -0.00095011 0)
(-0.00233907 -0.00119174 0)
(-0.00200256 -0.00140773 0)
(-0.00161161 -0.00159113 0)
(-0.00117506 -0.00173508 0)
(-0.000703865 -0.00183021 0)
(-0.000230547 -0.00174632 0)
(-0.000255262 0.00221767 0)
(-0.00077906 0.0023241 0)
(-0.00129971 0.002203 0)
(-0.00178091 0.00202038 0)
(-0.0022108 0.00178842 0)
(-0.00258016 0.00151602 0)
(-0.0028823 0.00121194 0)
(-0.00311273 0.000884341 0)
(-0.00326864 0.000540538 0)
(-0.00334838 0.000187067 0)
(-0.00335112 -0.000170074 0)
(-0.00327663 -0.000525051 0)
(-0.00312531 -0.000871776 0)
(-0.00289839 -0.00120352 0)
(-0.00259833 -0.00151268 0)
(-0.00222932 -0.00179066 0)
(-0.0017979 -0.00202817 0)
(-0.00131333 -0.00221569 0)
(-0.000787781 -0.00234035 0)
(-0.000258227 -0.00223482 0)
(-0.000290098 0.00276254 0)
(-0.000884524 0.0028924 0)
(-0.00147303 0.00273698 0)
(-0.00201361 0.00250443 0)
(-0.00249304 0.00221132 0)
(-0.00290185 0.00186985 0)
(-0.00323388 0.00149155 0)
(-0.00348563 0.00108662 0)
(-0.00365533 0.000663785 0)
(-0.00374217 0.000230394 0)
(-0.00374577 -0.000207084 0)
(-0.00366585 -0.000642471 0)
(-0.00350227 -0.0010692 0)
(-0.0032553 -0.00147971 0)
(-0.0029262 -0.00186493 0)
(-0.00251806 -0.00221411 0)
(-0.00203674 -0.00251502 0)
(-0.00149171 -0.00275458 0)
(-0.000896547 -0.00291514 0)
(-0.000294193 -0.00278663 0)
(-0.000334748 0.00338638 0)
(-0.00101926 0.00354094 0)
(-0.00169309 0.00334254 0)
(-0.00230667 0.0030489 0)
(-0.00284538 0.00268274 0)
(-0.00329993 0.00226079 0)
(-0.00366552 0.00179805 0)
(-0.00394049 0.00130705 0)
(-0.00412487 0.000797736 0)
(-0.00421925 0.000277862 0)
(-0.00422398 -0.000246237 0)
(-0.00413875 -0.000768697 0)
(-0.00396255 -0.0012831 0)
(-0.00369412 -0.00178148 0)
(-0.00333273 -0.00225351 0)
(-0.00287941 -0.00268602 0)
(-0.00233847 -0.00306308 0)
(-0.00171901 -0.00336672 0)
(-0.00103607 -0.00357261 0)
(-0.000340493 -0.00342014 0)
(-0.000392044 0.00411128 0)
(-0.00119134 0.00429091 0)
(-0.00197167 0.00403657 0)
(-0.00267353 0.00366586 0)
(-0.00328115 0.00321033 0)
(-0.00378654 0.002693 0)
(-0.00418762 0.00213327 0)
(-0.00448594 0.00154615 0)
(-0.00468452 0.00094246 0)
(-0.00478615 0.000329626 0)
(-0.00479233 -0.000287096 0)
(-0.00470272 -0.000903195 0)
(-0.00451506 -0.00151337 0)
(-0.00422571 -0.00211006 0)
(-0.00383075 -0.00268211 0)
(-0.00332763 -0.00321379 0)
(-0.00271757 -0.00368453 0)
(-0.00200806 -0.00406959 0)
(-0.00121519 -0.004335 0)
(-0.000400233 -0.0041587 0)
(-0.000466401 0.00496623 0)
(-0.00141308 0.00516911 0)
(-0.00232613 0.00483891 0)
(-0.00313306 0.00436787 0)
(-0.00381824 0.00380046 0)
(-0.00437699 0.00316841 0)
(-0.00481238 0.00249653 0)
(-0.0051313 0.00180228 0)
(-0.00534139 0.0010966 0)
(-0.00544881 0.000385369 0)
(-0.0054568 -0.000328667 0)
(-0.00536502 -0.00104388 0)
(-0.00516941 -0.00175759 0)
(-0.00486285 -0.00246396 0)
(-0.00443646 -0.00315189 0)
(-0.00388184 -0.00380327 0)
(-0.00319444 -0.00439191 0)
(-0.0023778 -0.00488374 0)
(-0.00144746 -0.00523061 0)
(-0.000478303 -0.0050333 0)
(-0.00056506 0.00599127 0)
(-0.00170396 0.00621026 0)
(-0.00278253 0.00577281 0)
(-0.00371216 0.00516706 0)
(-0.00448061 0.00445657 0)
(-0.00509047 0.00368486 0)
(-0.00555375 0.00288302 0)
(-0.00588587 0.00207042 0)
(-0.00610143 0.00125661 0)
(-0.00621141 0.000444022 0)
(-0.00622158 -0.000369208 0)
(-0.00613165 -0.00118643 0)
(-0.00593514 -0.00200976 0)
(-0.00562001 -0.00283719 0)
(-0.00517005 -0.00365947 0)
(-0.00456766 -0.0044569 0)
(-0.00379825 -0.00519699 0)
(-0.00285685 -0.00583316 0)
(-0.00175456 -0.00629629 0)
(-0.000582827 -0.0060872 0)
(-0.000700737 0.00724485 0)
(-0.00209615 0.00746014 0)
(-0.00338088 0.00686486 0)
(-0.00444951 0.00607301 0)
(-0.00530045 0.00517617 0)
(-0.00595056 0.00423309 0)
(-0.00642683 0.0032815 0)
(-0.00675771 0.00234067 0)
(-0.00696779 0.00141597 0)
(-0.00707463 0.000503479 0)
(-0.00708726 -0.000405985 0)
(-0.00700557 -0.0013235 0)
(-0.00682018 -0.00225884 0)
(-0.00651256 -0.00321695 0)
(-0.00605616 -0.00419362 0)
(-0.00541936 -0.00517026 0)
(-0.00457095 -0.0061082 0)
(-0.00348934 -0.00694499 0)
(-0.00217266 -0.00758075 0)
(-0.000728312 -0.0073845 0)
(-0.000897755 0.00881777 0)
(-0.00264547 0.00897926 0)
(-0.00418355 0.0081436 0)
(-0.00540112 0.00708815 0)
(-0.00632054 0.00594539 0)
(-0.00698514 0.00479264 0)
(-0.00744617 0.00367148 0)
(-0.00775141 0.00259638 0)
(-0.00793863 0.00156398 0)
(-0.00803337 0.000560178 0)
(-0.00804856 -0.000435003 0)
(-0.0079845 -0.00144367 0)
(-0.00782859 -0.00248683 0)
(-0.00755479 -0.00358059 0)
(-0.00712335 -0.00473092 0)
(-0.00648223 -0.00592594 0)
(-0.00557328 -0.00712507 0)
(-0.00434431 -0.00824746 0)
(-0.00276526 -0.00914824 0)
(-0.000943053 -0.00902604 0)
(-0.00120583 0.0108594 0)
(-0.00345322 0.0108461 0)
(-0.00528874 0.00963421 0)
(-0.00664804 0.00819809 0)
(-0.00759597 0.00673101 0)
(-0.00822448 0.00532589 0)
(-0.0086231 0.00401901 0)
(-0.00886521 0.00281148 0)
(-0.00900399 0.00168448 0)
(-0.00907362 0.000608582 0)
(-0.00909111 -0.000450838 0)
(-0.00905741 -0.00153042 0)
(-0.0089571 -0.00266638 0)
(-0.00875664 -0.00389144 0)
(-0.0084015 -0.00522927 0)
(-0.00781351 -0.00668468 0)
(-0.00689282 -0.00822676 0)
(-0.00553084 -0.00976279 0)
(-0.00364884 -0.011081 0)
(-0.00128561 -0.0111807 0)
(-0.0017312 0.0136416 0)
(-0.00471077 0.0131553 0)
(-0.00685184 0.0113428 0)
(-0.00830474 0.00935428 0)
(-0.00919279 0.00746745 0)
(-0.00969716 0.00576921 0)
(-0.00996059 0.00427175 0)
(-0.0100859 0.00294834 0)
(-0.0101415 0.00175488 0)
(-0.0101687 0.000640815 0)
(-0.0101876 -0.000446727 0)
(-0.0102001 -0.00156169 0)
(-0.0101896 -0.00275908 0)
(-0.0101177 -0.00409415 0)
(-0.00991659 -0.00561875 0)
(-0.0094797 -0.00737085 0)
(-0.00865181 -0.00935211 0)
(-0.0072215 -0.0114868 0)
(-0.00504631 -0.013472 0)
(-0.00188359 -0.0141496 0)
(-0.00271972 0.0175052 0)
(-0.00680596 0.0159734 0)
(-0.00911452 0.0132145 0)
(-0.010524 0.0104443 0)
(-0.0111811 0.00803612 0)
(-0.0114202 0.00602228 0)
(-0.0114439 0.00435495 0)
(-0.011382 0.00295694 0)
(-0.0113115 0.00174673 0)
(-0.0112752 0.000646852 0)
(-0.0112936 -0.000415286 0)
(-0.0113697 -0.00151113 0)
(-0.0114895 -0.00271556 0)
(-0.0116163 -0.00411155 0)
(-0.0116782 -0.00579132 0)
(-0.0115468 -0.00785006 0)
(-0.0110091 -0.010365 0)
(-0.00968038 -0.013343 0)
(-0.00740151 -0.0163882 0)
(-0.0030271 -0.018446 0)
(-0.00457535 0.0245433 0)
(-0.0103613 0.0194989 0)
(-0.01241 0.0151241 0)
(-0.0134826 0.011255 0)
(-0.013613 0.0082417 0)
(-0.0133763 0.0059385 0)
(-0.0130238 0.00417126 0)
(-0.0126919 0.00277847 0)
(-0.0124492 0.00162834 0)
(-0.0123283 0.000615197 0)
(-0.012343 -0.000349907 0)
(-0.0124977 -0.00135182 0)
(-0.0127873 -0.00248109 0)
(-0.0131906 -0.00384792 0)
(-0.0136521 -0.00559497 0)
(-0.0140501 -0.00790712 0)
(-0.0141413 -0.0110095 0)
(-0.0132812 -0.0151631 0)
(-0.0115567 -0.019939 0)
(-0.00533024 -0.0258225 0)
(-0.00954721 0.0294732 0)
(-0.0180708 0.0217858 0)
(-0.0173115 0.0161344 0)
(-0.0173141 0.0112076 0)
(-0.0163922 0.00773801 0)
(-0.0153776 0.00532462 0)
(-0.0144859 0.00361693 0)
(-0.0138032 0.00235884 0)
(-0.0133502 0.0013736 0)
(-0.0131265 0.000537082 0)
(-0.0131314 -0.000246322 0)
(-0.0133693 -0.00106161 0)
(-0.0138512 -0.00200402 0)
(-0.0145919 -0.00319693 0)
(-0.0155935 -0.00481996 0)
(-0.0168087 -0.00714446 0)
(-0.0180973 -0.0105625 0)
(-0.0184804 -0.0157006 0)
(-0.0197157 -0.0214596 0)
(-0.0104823 -0.0329212 0)
(-0.0144917 0.0637426 0)
(-0.0234835 0.0265289 0)
(-0.0192387 0.0171683 0)
(-0.0175248 0.0100708 0)
(-0.0148521 0.00614683 0)
(-0.0126995 0.00392003 0)
(-0.0111008 0.00253859 0)
(-0.00998715 0.0016115 0)
(-0.00927989 0.000931637 0)
(-0.0089217 0.000378202 0)
(-0.00888205 -0.000130073 0)
(-0.00915993 -0.000661143 0)
(-0.00978294 -0.00129476 0)
(-0.0108049 -0.00215322 0)
(-0.0123006 -0.00345884 0)
(-0.0143229 -0.00565969 0)
(-0.0169079 -0.00963428 0)
(-0.0177965 -0.017518 0)
(-0.0234595 -0.0286874 0)
(-0.00984999 -0.0682787 0)
(0.0735578 0.0506057 0)
(0.0658538 0.0176696 0)
(0.0990277 0.00992385 0)
(0.106207 0.00514791 0)
(0.112116 0.00277244 0)
(0.115838 0.00161893 0)
(0.11813 0.000993684 0)
(0.119579 0.000616132 0)
(0.120463 0.000360176 0)
(0.120924 0.000163162 0)
(0.121026 -1.07819e-05 0)
(0.12078 -0.000189798 0)
(0.12014 -0.000404552 0)
(0.118983 -0.000709024 0)
(0.117049 -0.00121524 0)
(0.113879 -0.0021846 0)
(0.107844 -0.00417183 0)
(0.103007 -0.00898506 0)
(0.0670564 -0.0160116 0)
(0.0770197 -0.0490194 0)
)
;

boundaryField
{
    movingWall
    {
        type            fixedValue;
        value           uniform (1 0 0);
    }
    fixedWalls
    {
        type            noSlip;
    }
    frontAndBack
    {
        type            empty;
    }
}


// ************************************************************************* //
