/*--------------------------------*- C++ -*----------------------------------*\
  =========                 |
  \\      /  F ield         | OpenFOAM: The Open Source CFD Toolbox
   \\    /   O peration     | Website:  https://openfoam.org
    \\  /    A nd           | Version:  10
     \\/     M anipulation  |
\*---------------------------------------------------------------------------*/
FoamFile
{
    format      ascii;
    class       volVectorField;
    location    "5.45";
    object      U;
}
// * * * * * * * * * * * * * * * * * * * * * * * * * * * * * * * * * * * * * //

dimensions      [0 1 -1 0 0 0 0];

internalField   nonuniform List<vector> 
400
(
(-9.30751e-05 8.62989e-05 0)
(-0.000818764 0.000313658 0)
(-0.00204907 0.000386737 0)
(-0.003255 0.000399347 0)
(-0.00445708 0.000396068 0)
(-0.0056167 0.000387951 0)
(-0.0067121 0.000374252 0)
(-0.00771995 0.000351506 0)
(-0.00860943 0.000315801 0)
(-0.00934199 0.000263106 0)
(-0.00987148 0.000189738 0)
(-0.0101456 9.33291e-05 0)
(-0.0101077 -2.92253e-05 0)
(-0.00970236 -0.000176232 0)
(-0.00888568 -0.000341434 0)
(-0.00763415 -0.000512522 0)
(-0.00596705 -0.000666426 0)
(-0.00400156 -0.000761078 0)
(-0.00177998 -0.000709034 0)
(-0.000295773 -0.000321858 0)
(-0.000340877 0.000827233 0)
(-0.00184918 0.00177989 0)
(-0.00412932 0.00206953 0)
(-0.00635659 0.00209698 0)
(-0.0085446 0.00203698 0)
(-0.0106205 0.00193577 0)
(-0.012537 0.0017956 0)
(-0.014249 0.0016078 0)
(-0.0157041 0.00136137 0)
(-0.0168418 0.00104487 0)
(-0.0175936 0.00064763 0)
(-0.0178874 0.000160958 0)
(-0.0176465 -0.000416437 0)
(-0.0167966 -0.00107227 0)
(-0.0152839 -0.0017796 0)
(-0.0130859 -0.00248823 0)
(-0.0102468 -0.00310906 0)
(-0.00694392 -0.0034775 0)
(-0.00325709 -0.00326529 0)
(-0.000651283 -0.00174308 0)
(-0.000436694 0.00214045 0)
(-0.0022642 0.00410588 0)
(-0.00497038 0.00467802 0)
(-0.00759677 0.00470245 0)
(-0.0101639 0.00453131 0)
(-0.012589 0.00425941 0)
(-0.0148187 0.00389598 0)
(-0.0168032 0.00342869 0)
(-0.0184856 0.00283985 0)
(-0.0198014 0.00211035 0)
(-0.020678 0.00122235 0)
(-0.0210343 0.000162479 0)
(-0.0207786 -0.0010692 0)
(-0.0198229 -0.00245126 0)
(-0.0180969 -0.00392964 0)
(-0.0155591 -0.00540317 0)
(-0.0122427 -0.00669233 0)
(-0.00834302 -0.00746224 0)
(-0.00394462 -0.00705321 0)
(-0.000800706 -0.00398222 0)
(-0.000466403 0.0035034 0)
(-0.00243048 0.00653361 0)
(-0.0053353 0.00738981 0)
(-0.00814625 0.00740315 0)
(-0.0108964 0.00711615 0)
(-0.0135017 0.00667315 0)
(-0.0159113 0.00608971 0)
(-0.0180778 0.00534925 0)
(-0.0199458 0.00442629 0)
(-0.0214504 0.00329184 0)
(-0.0225153 0.00191768 0)
(-0.0230512 0.000282903 0)
(-0.0229513 -0.00161808 0)
(-0.0220964 -0.00376542 0)
(-0.0203745 -0.00608541 0)
(-0.0176977 -0.00842864 0)
(-0.0140591 -0.0105149 0)
(-0.00966048 -0.0118027 0)
(-0.00458927 -0.0112317 0)
(-0.00092938 -0.00644055 0)
(-0.000480043 0.00494095 0)
(-0.00253934 0.00910533 0)
(-0.00559751 0.0102617 0)
(-0.00855661 0.0102669 0)
(-0.0114628 0.00986732 0)
(-0.014234 0.00925985 0)
(-0.0168255 0.00846693 0)
(-0.0191962 0.00746745 0)
(-0.0212961 0.00622672 0)
(-0.0230625 0.0047027 0)
(-0.024416 0.00285059 0)
(-0.025255 0.000630861 0)
(-0.0254511 -0.00197822 0)
(-0.0248447 -0.00496975 0)
(-0.0232587 -0.00826352 0)
(-0.0205247 -0.0116669 0)
(-0.016551 -0.014782 0)
(-0.0115207 -0.0167986 0)
(-0.00552736 -0.0161301 0)
(-0.00112529 -0.00934064 0)
(-0.000494112 0.0064387 0)
(-0.00265594 0.0118099 0)
(-0.00588258 0.0132876 0)
(-0.00900734 0.0132924 0)
(-0.0120904 0.0127902 0)
(-0.0150532 0.0120347 0)
(-0.0178604 0.0110564 0)
(-0.020481 0.00982979 0)
(-0.0228745 0.00830945 0)
(-0.0249857 0.00643637 0)
(-0.0267363 0.00414149 0)
(-0.0280153 0.00135398 0)
(-0.0286717 -0.00198454 0)
(-0.028492 -0.00590375 0)
(-0.0272077 -0.0103429 0)
(-0.0245258 -0.0150814 0)
(-0.0202032 -0.0195856 0)
(-0.0143395 -0.0226931 0)
(-0.00701603 -0.0220736 0)
(-0.00146121 -0.0129187 0)
(-0.000512079 0.00800523 0)
(-0.00279638 0.0146653 0)
(-0.0062214 0.0164884 0)
(-0.00953898 0.0165017 0)
(-0.0128256 0.015909 0)
(-0.0160078 0.0150269 0)
(-0.0190631 0.0138961 0)
(-0.0219754 0.0124876 0)
(-0.0247208 0.0107449 0)
(-0.0272597 0.00858847 0)
(-0.0295246 0.00591684 0)
(-0.0314036 0.00261216 0)
(-0.0327296 -0.00144648 0)
(-0.0332338 -0.00635828 0)
(-0.0325314 -0.0121354 0)
(-0.0301447 -0.0185734 0)
(-0.0255769 -0.0250072 0)
(-0.0186951 -0.0298181 0)
(-0.00949194 -0.0295773 0)
(-0.00208078 -0.0176071 0)
(-0.00053422 0.00965579 0)
(-0.00296378 0.0177 0)
(-0.00661922 0.0198937 0)
(-0.0101542 0.0199215 0)
(-0.0136647 0.0192488 0)
(-0.0170844 0.0182626 0)
(-0.0204072 0.0170178 0)
(-0.0236386 0.0154849 0)
(-0.0267796 0.0135982 0)
(-0.029819 0.0112569 0)
(-0.032717 0.00832125 0)
(-0.0353825 0.00460889 0)
(-0.0376485 -9.70787e-05 0)
(-0.0392089 -0.00600406 0)
(-0.0395571 -0.0132911 0)
(-0.0379679 -0.0218667 0)
(-0.0335521 -0.0310011 0)
(-0.0256589 -0.0385321 0)
(-0.0139447 -0.0394325 0)
(-0.00334676 -0.0242357 0)
(-0.000561335 0.0114065 0)
(-0.00316148 0.0209436 0)
(-0.00707963 0.0235301 0)
(-0.0108507 0.0235713 0)
(-0.0145951 0.022823 0)
(-0.0182545 0.0217524 0)
(-0.021844 0.0204346 0)
(-0.0253972 0.0188455 0)
(-0.0289508 0.0169157 0)
(-0.0325386 0.0145284 0)
(-0.0361746 0.0115054 0)
(-0.0398248 0.00759175 0)
(-0.0433522 0.00244768 0)
(-0.0464777 -0.00433036 0)
(-0.0486267 -0.0131794 0)
(-0.0488026 -0.024306 0)
(-0.0455908 -0.0371307 0)
(-0.0373689 -0.0490233 0)
(-0.022737 -0.052856 0)
(-0.00619828 -0.0345873 0)
(-0.000596423 0.0132768 0)
(-0.0033988 0.0244279 0)
(-0.00761415 0.0274211 0)
(-0.0116336 0.0274614 0)
(-0.0156082 0.0266299 0)
(-0.0194892 0.0254859 0)
(-0.0233171 0.0241327 0)
(-0.0271593 0.0225605 0)
(-0.0310987 0.020708 0)
(-0.0352318 0.0184556 0)
(-0.0396572 0.0156011 0)
(-0.0444479 0.0118254 0)
(-0.0495964 0.00665048 0)
(-0.0549461 -0.000593717 0)
(-0.0599985 -0.0106888 0)
(-0.0636829 -0.024471 0)
(-0.0640692 -0.0419426 0)
(-0.0578746 -0.0606586 0)
(-0.0407719 -0.0715781 0)
(-0.0126974 -0.0523992 0)
(-0.000646595 0.0152956 0)
(-0.0036963 0.0281927 0)
(-0.00824979 0.0315887 0)
(-0.0125231 0.031592 0)
(-0.0167087 0.0306498 0)
(-0.0207692 0.0294271 0)
(-0.0247727 0.0280636 0)
(-0.0288241 0.0265754 0)
(-0.0330583 0.0249262 0)
(-0.0376491 0.0230186 0)
(-0.0428114 0.020661 0)
(-0.048793 0.0175093 0)
(-0.0558352 0.012979 0)
(-0.0640799 0.00615144 0)
(-0.0735412 -0.00423307 0)
(-0.0836097 -0.0196961 0)
(-0.0920664 -0.0419734 0)
(-0.0925615 -0.0709855 0)
(-0.0733981 -0.0980444 0)
(-0.0244841 -0.0859834 0)
(-0.000726679 0.017511 0)
(-0.00409404 0.0322943 0)
(-0.00903898 0.0360589 0)
(-0.013564 0.0359549 0)
(-0.0179236 0.0348437 0)
(-0.0220939 0.0335095 0)
(-0.0261722 0.0321368 0)
(-0.0302993 0.0307781 0)
(-0.0346586 0.029443 0)
(-0.0395019 0.0280938 0)
(-0.0451778 0.0266105 0)
(-0.052168 0.0247211 0)
(-0.0611108 0.0218851 0)
(-0.0727869 0.0171381 0)
(-0.0880905 0.00891007 0)
(-0.10795 -0.00542116 0)
(-0.129839 -0.0312054 0)
(-0.140034 -0.0767931 0)
(-0.114649 -0.137918 0)
(-0.0369122 -0.147543 0)
(-0.0008658 0.0199945 0)
(-0.00466334 0.0367764 0)
(-0.0100723 0.0408007 0)
(-0.0148389 0.0404704 0)
(-0.0193153 0.0391106 0)
(-0.0234951 0.0376159 0)
(-0.0275077 0.0362062 0)
(-0.0315204 0.03498 0)
(-0.0357453 0.0340143 0)
(-0.0404852 0.033371 0)
(-0.0461951 0.0330781 0)
(-0.0535757 0.0330802 0)
(-0.0637039 0.0331433 0)
(-0.078211 0.0326885 0)
(-0.0995571 0.0302965 0)
(-0.129964 0.0211509 0)
(-0.163977 -0.00846587 0)
(-0.17606 -0.085513 0)
(-0.138884 -0.202931 0)
(-0.0427117 -0.240188 0)
(-0.00113838 0.0229734 0)
(-0.00558178 0.0420326 0)
(-0.0115261 0.0462491 0)
(-0.0164612 0.045552 0)
(-0.0209474 0.0437269 0)
(-0.0250167 0.0418539 0)
(-0.0288111 0.0402304 0)
(-0.0324933 0.0390141 0)
(-0.0362704 0.038358 0)
(-0.0404435 0.0384571 0)
(-0.045488 0.0395778 0)
(-0.052194 0.0420596 0)
(-0.0618701 0.0462977 0)
(-0.0765538 0.0523815 0)
(-0.099331 0.0586551 0)
(-0.131756 0.0553387 0)
(-0.166193 0.0156528 0)
(-0.169682 -0.104171 0)
(-0.13386 -0.277176 0)
(-0.0453478 -0.343215 0)
(-0.00152301 0.0266472 0)
(-0.00666266 0.0469473 0)
(-0.0133981 0.0506354 0)
(-0.0186257 0.0491006 0)
(-0.0231698 0.0468563 0)
(-0.027 0.0448484 0)
(-0.0303431 0.0432464 0)
(-0.0333853 0.0421559 0)
(-0.0362876 0.0417669 0)
(-0.03924 0.0423999 0)
(-0.0425569 0.0445895 0)
(-0.0467941 0.0491566 0)
(-0.0530023 0.0572186 0)
(-0.0626652 0.0692095 0)
(-0.0780529 0.0824987 0)
(-0.0988577 0.0807267 0)
(-0.122946 0.0303356 0)
(-0.118962 -0.118467 0)
(-0.110232 -0.325783 0)
(-0.0387501 -0.437952 0)
(-0.00357469 0.030056 0)
(-0.0109409 0.0557536 0)
(-0.0171343 0.0593276 0)
(-0.021707 0.0573259 0)
(-0.0254368 0.0537974 0)
(-0.0286811 0.050524 0)
(-0.0315075 0.0478439 0)
(-0.0339256 0.0459299 0)
(-0.0359093 0.0449833 0)
(-0.0374131 0.0453457 0)
(-0.038388 0.0476834 0)
(-0.038799 0.0530679 0)
(-0.0389875 0.0631447 0)
(-0.0386099 0.0780842 0)
(-0.0394093 0.0950076 0)
(-0.038094 0.0925994 0)
(-0.0464295 0.040193 0)
(-0.0389912 -0.114527 0)
(-0.068594 -0.342665 0)
(-0.0151544 -0.505162 0)
(-0.00123064 0.0441099 0)
(-0.00888601 0.0583334 0)
(-0.0200697 0.0585796 0)
(-0.0251426 0.0540254 0)
(-0.0297316 0.0507349 0)
(-0.0326241 0.0482434 0)
(-0.034547 0.0463323 0)
(-0.0356119 0.044879 0)
(-0.0358208 0.0440462 0)
(-0.0349778 0.0441046 0)
(-0.0327281 0.0457504 0)
(-0.0282605 0.0497932 0)
(-0.0212854 0.0579933 0)
(-0.00890592 0.0700457 0)
(0.00534352 0.0843682 0)
(0.0304965 0.0827506 0)
(0.0354538 0.0371736 0)
(0.0454598 -0.0940821 0)
(-0.0140557 -0.328802 0)
(0.0138097 -0.523985 0)
(-0.0122704 0.0332719 0)
(-0.0246104 0.0800065 0)
(-0.0245924 0.0785492 0)
(-0.0313359 0.0733271 0)
(-0.0338483 0.0660721 0)
(-0.0346735 0.0598276 0)
(-0.0337557 0.0545863 0)
(-0.0314642 0.0503102 0)
(-0.0279525 0.0469863 0)
(-0.0230138 0.0444508 0)
(-0.0167138 0.043137 0)
(-0.00767515 0.0432774 0)
(0.0036675 0.046502 0)
(0.0221138 0.0522017 0)
(0.0425904 0.0609741 0)
(0.0781487 0.0609117 0)
(0.089385 0.0316418 0)
(0.122339 -0.0605825 0)
(0.0566397 -0.293465 0)
(0.0566595 -0.509145 0)
(-0.0769373 0.0971266 0)
(-0.0626411 0.0598783 0)
(-0.0649019 0.0600444 0)
(-0.0438564 0.0533791 0)
(-0.0268751 0.0464927 0)
(-0.00737932 0.0413234 0)
(0.0110178 0.0375792 0)
(0.0293482 0.0343065 0)
(0.0461494 0.0318701 0)
(0.0637795 0.0294584 0)
(0.0788138 0.0279489 0)
(0.0975089 0.0267054 0)
(0.110904 0.0264724 0)
(0.136912 0.0273133 0)
(0.14832 0.0253884 0)
(0.19633 0.0208494 0)
(0.194934 -0.0128244 0)
(0.24336 -0.0809215 0)
(0.170312 -0.266934 0)
(0.127778 -0.446622 0)
(0.119907 0.140586 0)
(0.152509 0.0861012 0)
(0.229813 0.0635774 0)
(0.285062 0.0482109 0)
(0.326521 0.0375445 0)
(0.364845 0.0298283 0)
(0.393581 0.0244075 0)
(0.425222 0.0204328 0)
(0.444734 0.0176006 0)
(0.474039 0.0153902 0)
(0.486242 0.0136828 0)
(0.516148 0.0126613 0)
(0.521671 0.0114878 0)
(0.555161 0.0113306 0)
(0.551292 0.00983336 0)
(0.588414 0.00657824 0)
(0.561488 -0.00239963 0)
(0.572792 -0.0266017 0)
(0.434318 -0.0727395 0)
(0.278207 -0.152462 0)
)
;

boundaryField
{
    movingWall
    {
        type            fixedValue;
        value           uniform (1 0 0);
    }
    fixedWalls
    {
        type            noSlip;
    }
    frontAndBack
    {
        type            empty;
    }
}


// ************************************************************************* //
