/*--------------------------------*- C++ -*----------------------------------*\
  =========                 |
  \\      /  F ield         | OpenFOAM: The Open Source CFD Toolbox
   \\    /   O peration     | Website:  https://openfoam.org
    \\  /    A nd           | Version:  10
     \\/     M anipulation  |
\*---------------------------------------------------------------------------*/
FoamFile
{
    format      ascii;
    class       volScalarField;
    location    "3.55";
    object      p;
}
// * * * * * * * * * * * * * * * * * * * * * * * * * * * * * * * * * * * * * //

dimensions      [0 2 -2 0 0 0 0];

internalField   nonuniform List<scalar> 
400
(
-6.13972e-09
-3.2214e-05
-1.28999e-05
3.15062e-05
0.000106768
0.000213359
0.000351328
0.000520398
0.000719433
0.000946054
0.00119629
0.00146421
0.00174172
0.00201839
0.00228171
0.00251768
0.0027114
0.00284891
0.00292867
0.00290678
3.21635e-05
-1.25621e-06
1.87448e-05
6.07138e-05
0.000131756
0.00023292
0.000364641
0.000526999
0.000719214
0.000939273
0.00118356
0.00144625
0.00171994
0.00199424
0.00225664
0.00249296
0.0026879
0.00282738
0.0029109
0.00288764
9.41816e-06
-2.87405e-05
-1.03645e-05
2.90707e-05
9.74043e-05
0.000195913
0.000325407
0.00048645
0.000678788
0.000900935
0.00114976
0.00142046
0.00170511
0.00199325
0.00227177
0.00252522
0.00273634
0.00288856
0.00298066
0.00295329
-4.3271e-05
-8.5666e-05
-6.94868e-05
-3.33297e-05
3.1555e-05
0.000126839
0.00025394
0.00041416
0.000608082
0.000835096
0.00109291
0.00137717
0.00168097
0.00199347
0.00230034
0.00258394
0.00282383
0.00299918
0.00310707
0.0030777
-0.000131638
-0.000178815
-0.000165478
-0.000133337
-7.25419e-05
1.91114e-05
0.000143845
0.000303959
0.000501178
0.000736143
0.00100782
0.00131286
0.00164511
0.00199376
0.00234334
0.00267337
0.00295842
0.00317081
0.00330433
0.00327453
-0.00025613
-0.000309193
-0.000299537
-0.000272575
-0.000217146
-0.000130369
-9.01699e-06
0.000150486
0.000351373
0.000595981
0.000885054
0.0012169
0.00158706
0.00198499
0.00239423
0.00279086
0.00314275
0.00341171
0.00358526
0.00355773
-0.000417201
-0.000477534
-0.000472681
-0.000452654
-0.000404729
-0.000325233
-0.000209719
-5.30322e-05
0.00014998
0.000403916
0.000712015
0.00107508
0.00149164
0.00195251
0.00244102
0.00292977
0.00337816
0.00373238
0.00396816
0.00394946
-0.000615712
-0.000684957
-0.000686365
-0.000675696
-0.000638408
-0.000569956
-0.000464492
-0.000314987
-0.000113932
0.000146168
0.000471959
0.000867638
0.00133711
0.00187398
0.00246372
0.00307651
0.00366218
0.00414527
0.00447871
0.00448517
-0.000852695
-0.000932728
-0.000942155
-0.00094395
-0.000921508
-0.000869398
-0.000780248
-0.000644941
-0.000453248
-0.000194104
0.000143873
0.000571863
0.00109294
0.00171545
0.00242892
0.00320421
0.00398235
0.00466176
0.00515093
0.00522311
-0.00112932
-0.00122221
-0.00124156
-0.00125953
-0.0012572
-0.00122836
-0.00116405
-0.00105302
-0.000882172
-0.000636633
-0.000299898
0.000145224
0.000715109
0.00142616
0.00228187
0.00326198
0.00430457
0.00528271
0.00602635
0.00626377
-0.00144706
-0.00155495
-0.00158594
-0.00162412
-0.00164809
-0.00165096
-0.00162233
-0.00154886
-0.0014148
-0.00120155
-0.000887184
-0.000446422
0.000148743
0.000933797
0.00193556
0.00315659
0.00454924
0.00597455
0.00714877
0.00778578
-0.00180822
-0.00193302
-0.00197644
-0.00203871
-0.00209563
-0.00213991
-0.00215975
-0.00214012
-0.00206316
-0.00190736
-0.00164617
-0.001246
-0.000664015
0.000143075
0.0012574
0.00272172
0.00454234
0.00661353
0.00850929
0.0101153
-0.0022172
-0.00235965
-0.00241399
-0.00250311
-0.00259947
-0.0026955
-0.00277799
-0.0028306
-0.0028345
-0.00276733
-0.00260125
-0.00229988
-0.00181609
-0.00109612
3.55215e-05
0.0016613
0.00391155
0.00682767
0.00991134
0.013677
-0.0026832
-0.00283959
-0.00289686
-0.0030132
-0.00315555
-0.00331462
-0.00347465
-0.00361834
-0.00372758
-0.00378198
-0.00375682
-0.00361845
-0.00331333
-0.00274181
-0.00185656
-0.000396839
0.00197809
0.00565086
0.0102803
0.0178859
-0.00322481
-0.00340227
-0.00345273
-0.0035977
-0.00378119
-0.00400151
-0.00424515
-0.00449411
-0.00473028
-0.00493744
-0.00510232
-0.00521166
-0.00524564
-0.00516589
-0.00491482
-0.00435756
-0.00306254
0.000397682
0.00540404
0.018328
-0.00392739
-0.00390653
-0.00390378
-0.00403179
-0.00428409
-0.00461995
-0.00500474
-0.00540614
-0.0058027
-0.00618434
-0.00655734
-0.00694426
-0.00739038
-0.0079674
-0.00881975
-0.0100684
-0.0118176
-0.0111943
-0.00819839
0.0109718
-0.00442328
-0.00492763
-0.00482817
-0.00509223
-0.00535752
-0.00570606
-0.00612106
-0.00657929
-0.00706537
-0.00757297
-0.00812272
-0.00877614
-0.00967087
-0.0110485
-0.0134677
-0.0172657
-0.0251964
-0.02948
-0.0272841
0.00103719
-0.00754571
-0.00507867
-0.00478913
-0.00467535
-0.00506398
-0.00566578
-0.00638597
-0.00713318
-0.00787819
-0.00859481
-0.00933122
-0.0101492
-0.0113148
-0.0130602
-0.0166448
-0.0215608
-0.0328273
-0.0397601
-0.0374329
0.0125612
-0.0044423
-0.00737557
-0.00678277
-0.00736906
-0.00759316
-0.00798694
-0.00850684
-0.00908065
-0.0096901
-0.010305
-0.010899
-0.0116215
-0.0127123
-0.0143706
-0.0186087
-0.0238597
-0.0349367
-0.0369112
-0.0173544
0.0648911
-0.0285911
-0.00392287
-0.00320171
-0.00315473
-0.00369754
-0.00466151
-0.0058546
-0.00697633
-0.00810707
-0.00903772
-0.0100556
-0.0109536
-0.0124036
-0.0140689
-0.016757
-0.0183735
-0.0165476
0.00450047
0.0650656
0.20052
)
;

boundaryField
{
    movingWall
    {
        type            zeroGradient;
    }
    fixedWalls
    {
        type            zeroGradient;
    }
    frontAndBack
    {
        type            empty;
    }
}


// ************************************************************************* //
