/*--------------------------------*- C++ -*----------------------------------*\
  =========                 |
  \\      /  F ield         | OpenFOAM: The Open Source CFD Toolbox
   \\    /   O peration     | Website:  https://openfoam.org
    \\  /    A nd           | Version:  10
     \\/     M anipulation  |
\*---------------------------------------------------------------------------*/
FoamFile
{
    format      ascii;
    class       volScalarField;
    location    "3.225";
    object      p;
}
// * * * * * * * * * * * * * * * * * * * * * * * * * * * * * * * * * * * * * //

dimensions      [0 2 -2 0 0 0 0];

internalField   nonuniform List<scalar> 
400
(
-8.93032e-09
-3.17817e-05
-1.01255e-05
3.78554e-05
0.000117455
0.00022897
0.000372023
0.000545809
0.000748615
0.000977491
0.00122796
0.00149377
0.0017667
0.00203658
0.00229154
0.00251857
0.0027041
0.00283562
0.00291195
0.00289068
3.14435e-05
-1.64836e-06
2.0256e-05
6.56024e-05
0.000140948
0.000247134
0.00038415
0.00055154
0.000747929
0.000970708
0.00121571
0.00147678
0.00174627
0.00201401
0.0022681
0.00249535
0.00268182
0.0028149
0.00289436
0.00287171
6.52909e-06
-3.10072e-05
-1.06127e-05
3.25123e-05
0.000105614
0.000209771
0.00034533
0.000512271
0.000709683
0.000935393
0.00118564
0.00145506
0.00173545
0.00201648
0.00228564
0.00252858
0.00272965
0.00287415
0.00296123
0.00293499
-4.92273e-05
-9.09069e-05
-7.24928e-05
-3.21327e-05
3.82894e-05
0.000140266
0.000274719
0.000442302
0.00064283
0.000874859
0.00113527
0.00141903
0.0017186
0.00202314
0.00231887
0.00258946
0.00281653
0.00298174
0.00308285
0.00305483
-0.000141422
-0.000187896
-0.000171998
-0.000134939
-6.75277e-05
3.22866e-05
0.000166197
0.00033577
0.000541822
0.000783948
0.00106001
0.00136567
0.00169382
0.00203339
0.00236931
0.00268251
0.00295026
0.00314849
0.00327221
0.00324369
-0.000270851
-0.000323305
-0.000310681
-0.000277905
-0.000214454
-0.00011757
1.54322e-05
0.000187303
0.000400192
0.000655118
0.000951365
0.0012858
0.0016524
0.00203997
0.00243212
0.00280642
0.0031341
0.00338237
0.00354112
0.00351418
-0.000438361
-0.000498276
-0.00049001
-0.00046312
-0.000405447
-0.000313357
-0.000182938
-9.94309e-06
0.000209506
0.000478354
0.000797905
0.00116694
0.00158148
0.00203096
0.00249813
0.00295689
0.00337066
0.00369364
0.00390624
0.00388574
-0.00064526
-0.000714417
-0.000711999
-0.000693333
-0.000644288
-0.00056019
-0.000435654
-0.000264607
-4.10073e-05
0.000240599
0.000584301
0.000991741
0.00146256
0.00198817
0.0025519
0.00312456
0.00366046
0.00409506
0.0043911
0.00438885
-0.000893081
-0.000973574
-0.000978915
-0.000971634
-0.000935252
-0.000863919
-0.000750539
-0.000586893
-0.000364357
-7.43444e-05
0.000290924
0.000736875
0.00126944
0.00188391
0.00256742
0.00329008
0.00399713
0.00460002
0.00502738
0.00507212
-0.00118353
-0.00127776
-0.00129314
-0.00130125
-0.00128286
-0.00123083
-0.00113616
-0.000988223
-0.000775503
-0.000485726
-0.00010616
0.000376254
0.000966244
0.00167679
0.00250178
0.00341594
0.00435902
0.00521723
0.00585525
0.00601696
-0.00151857
-0.00162922
-0.00165707
-0.00168537
-0.00169161
-0.00166728
-0.00160129
-0.00148055
-0.00129057
-0.00101543
-0.000637535
-0.000138008
0.000502591
0.00130666
0.0022861
0.00343238
0.00469198
0.00593401
0.00692092
0.00736593
-0.00190087
-0.00203064
-0.00207308
-0.00212685
-0.00216553
-0.00217911
-0.0021542
-0.00207526
-0.00192515
-0.00168473
-0.00133188
-0.000840337
-0.000178984
0.000691828
0.00181331
0.00321341
0.00487515
0.00668065
0.00825593
0.0093652
-0.00233488
-0.00248559
-0.00254334
-0.00262792
-0.00270779
-0.00277105
-0.00280169
-0.00278179
-0.00269225
-0.00251215
-0.002217
-0.00177587
-0.00114689
-0.00028168
0.000921761
0.00254032
0.0046542
0.00723307
0.00975525
0.0124965
-0.00282964
-0.00299987
-0.00306874
-0.00318872
-0.00331968
-0.00344616
-0.00354835
-0.00360617
-0.00359959
-0.00350825
-0.00330942
-0.00297295
-0.00245376
-0.00167957
-0.000548436
0.00109003
0.00353191
0.00696728
0.0108952
0.0168284
-0.0033965
-0.00359268
-0.0036653
-0.00382638
-0.00401224
-0.00420965
-0.00439674
-0.00454971
-0.00464728
-0.00467194
-0.0046104
-0.004449
-0.00416524
-0.00371207
-0.00300622
-0.00187028
0.000228214
0.00429644
0.00951198
0.0205649
-0.00413278
-0.00414179
-0.00418763
-0.0043617
-0.00464016
-0.00496644
-0.00529546
-0.00558776
-0.00581824
-0.00597657
-0.00606905
-0.00611187
-0.0061319
-0.00615322
-0.00619357
-0.00615164
-0.00591988
-0.00340788
0.000195244
0.017828
-0.00467514
-0.00523445
-0.00519802
-0.00553573
-0.00585086
-0.00620586
-0.00657029
-0.00691264
-0.00721439
-0.00746815
-0.0076975
-0.00795554
-0.00835374
-0.00907494
-0.0104362
-0.0127487
-0.0176404
-0.0189013
-0.0169678
0.0103379
-0.00772894
-0.00533388
-0.00518996
-0.00523383
-0.0057426
-0.00639747
-0.00709214
-0.00772917
-0.0082737
-0.00870151
-0.0090741
-0.00945723
-0.0100883
-0.0112262
-0.013767
-0.0175224
-0.0267783
-0.0314305
-0.029168
0.0170649
-0.00474916
-0.00779173
-0.00738558
-0.00819002
-0.00859372
-0.00908355
-0.00959092
-0.0100314
-0.0104064
-0.0106733
-0.0108721
-0.0111584
-0.0117091
-0.0129791
-0.0163678
-0.0207382
-0.0318057
-0.0333026
-0.0166371
0.0600095
-0.0285401
-0.00414752
-0.00373709
-0.00400653
-0.00479613
-0.00590605
-0.00711233
-0.00813222
-0.00903921
-0.00962037
-0.0102205
-0.0106293
-0.0115401
-0.0126297
-0.0147947
-0.015952
-0.014392
0.00465214
0.061933
0.192073
)
;

boundaryField
{
    movingWall
    {
        type            zeroGradient;
    }
    fixedWalls
    {
        type            zeroGradient;
    }
    frontAndBack
    {
        type            empty;
    }
}


// ************************************************************************* //
