/*--------------------------------*- C++ -*----------------------------------*\
  =========                 |
  \\      /  F ield         | OpenFOAM: The Open Source CFD Toolbox
   \\    /   O peration     | Website:  https://openfoam.org
    \\  /    A nd           | Version:  10
     \\/     M anipulation  |
\*---------------------------------------------------------------------------*/
FoamFile
{
    format      ascii;
    class       volScalarField;
    location    "9.15";
    object      p;
}
// * * * * * * * * * * * * * * * * * * * * * * * * * * * * * * * * * * * * * //

dimensions      [0 2 -2 0 0 0 0];

internalField   nonuniform List<scalar> 
400
(
5.7978e-08
-2.99066e-05
2.77649e-05
0.000139907
0.000315066
0.000556449
0.000869195
0.00125997
0.00173563
0.00230157
0.00295957
0.00370488
0.00452165
0.00537841
0.00622235
0.00698125
0.00757059
0.00792636
0.00805985
0.00792915
3.33735e-05
2.96633e-06
6.90755e-05
0.000184366
0.000358915
0.000596757
0.000903405
0.00128553
0.00174991
0.0023022
0.00294507
0.00367521
0.00447764
0.00532482
0.0061653
0.00692529
0.00751414
0.00786221
0.0079866
0.00783595
-3.8485e-05
-7.84192e-05
-1.41074e-05
9.61928e-05
0.000263263
0.000491301
0.000786357
0.00115608
0.00160884
0.00215291
0.00279441
0.00353421
0.00436368
0.00526097
0.00616846
0.00700096
0.00764274
0.00799549
0.00807991
0.00785913
-0.000193248
-0.000239762
-0.000179888
-7.84001e-05
7.62574e-05
0.000288575
0.000565403
0.000915815
0.00135058
0.00188184
0.00252178
0.00327905
0.00415345
0.00512408
0.00614071
0.00709904
0.00784103
0.00820426
0.00820683
0.00786538
-0.000440773
-0.000492636
-0.000440576
-0.000352473
-0.000216059
-2.64882e-05
0.000223974
0.000546018
0.000953231
0.00146243
0.00209332
0.00286584
0.00379253
0.00486516
0.00603892
0.00719159
0.00810113
0.00848297
0.00833822
0.0077958
-0.00077933
-0.000836287
-0.000795407
-0.000725618
-0.000614263
-0.000456427
-0.00024387
3.5325e-05
0.000397139
0.000862815
0.00145988
0.0022218
0.00318064
0.00434936
0.00571594
0.00714834
0.00833723
0.00876142
0.00837298
0.00749872
-0.00120264
-0.00126506
-0.00123871
-0.00119269
-0.00111447
-0.000999669
-0.000840619
-0.000625671
-0.000338235
4.51142e-05
0.000557404
0.00124394
0.0021616
0.00336603
0.00488175
0.006632
0.00825235
0.00879228
0.00809075
0.00675674
-0.00170197
-0.00177054
-0.00176192
-0.00174528
-0.00170897
-0.00165019
-0.00156352
-0.00144033
-0.00126785
-0.00102655
-0.000686909
-0.000206437
0.000475263
0.00144311
0.00281542
0.00470333
0.00687407
0.00782934
0.0070975
0.0055357
-0.00226628
-0.00234164
-0.00235319
-0.0023707
-0.00238439
-0.00239448
-0.00240012
-0.00239939
-0.00238943
-0.00236599
-0.00232301
-0.00225582
-0.002178
-0.00209254
-0.00179432
-0.000618779
0.00182295
0.00418232
0.00495194
0.0046303
-0.00288242
-0.00296492
-0.00299726
-0.00305128
-0.0031201
-0.00320856
-0.00332309
-0.00347284
-0.00367259
-0.0039475
-0.00434259
-0.00494893
-0.00598296
-0.00777131
-0.0102053
-0.0115464
-0.00958834
-0.00453958
0.000528201
0.00412529
-0.00353604
-0.00362561
-0.00367629
-0.00376505
-0.00388835
-0.00405743
-0.00428809
-0.00460417
-0.00504514
-0.00567978
-0.0066349
-0.0081516
-0.0107347
-0.0152681
-0.0217633
-0.0273345
-0.0265202
-0.0185584
-0.00872252
-0.000367584
-0.00421296
-0.00430823
-0.00436927
-0.00448422
-0.00465281
-0.00489355
-0.00523163
-0.0057057
-0.00638058
-0.0073698
-0.00888471
-0.0113211
-0.0154176
-0.0223519
-0.0321115
-0.0408861
-0.0417046
-0.0329717
-0.0214931
-0.00979235
-0.00490382
-0.00500373
-0.00506239
-0.00518795
-0.00538225
-0.00567135
-0.00608764
-0.00667928
-0.00752642
-0.0087658
-0.0106482
-0.013622
-0.0184891
-0.0262808
-0.037076
-0.0463555
-0.0478207
-0.039667
-0.0299601
-0.0181432
-0.00559919
-0.0056933
-0.00572073
-0.00582857
-0.0060208
-0.00632729
-0.00678026
-0.00742984
-0.00835668
-0.00969145
-0.0116782
-0.014712
-0.0195056
-0.0267349
-0.0364315
-0.0438037
-0.0455835
-0.0383286
-0.0319822
-0.0211428
-0.00632525
-0.00642008
-0.00639077
-0.00645577
-0.00660441
-0.00687815
-0.00730921
-0.00794328
-0.0088515
-0.0101354
-0.0119899
-0.0147227
-0.0188226
-0.0245164
-0.0317517
-0.0369342
-0.0381139
-0.0319474
-0.0288124
-0.0181265
-0.00716784
-0.00706405
-0.00689616
-0.00682909
-0.00690573
-0.00713983
-0.00754361
-0.00814126
-0.00898556
-0.0101266
-0.011754
-0.0140115
-0.0171842
-0.0212273
-0.0261223
-0.0291833
-0.0296455
-0.024161
-0.0230362
-0.00879443
-0.00761634
-0.00800582
-0.0076476
-0.00759092
-0.00752041
-0.00760201
-0.00784779
-0.00829125
-0.00898217
-0.00992111
-0.011294
-0.01313
-0.0155861
-0.0184763
-0.0217951
-0.0234434
-0.0232259
-0.0178982
-0.0154221
0.009276
-0.0109884
-0.00842276
-0.00770469
-0.00701833
-0.0068638
-0.006973
-0.00729062
-0.00777841
-0.00846247
-0.00935397
-0.0105739
-0.012133
-0.0141681
-0.0163822
-0.0187289
-0.0194059
-0.0183224
-0.0113751
-0.00216867
0.0410155
-0.00758914
-0.0105296
-0.00933087
-0.00923588
-0.00868665
-0.00838026
-0.00827046
-0.00838035
-0.0087637
-0.00940559
-0.0104263
-0.0117784
-0.0137227
-0.0158549
-0.0183606
-0.0187957
-0.0168604
-0.00308837
0.0216153
0.0980891
-0.032834
-0.00769102
-0.00603603
-0.0051987
-0.00493246
-0.00508655
-0.00554375
-0.00611545
-0.00689229
-0.007798
-0.00906486
-0.0105236
-0.0123726
-0.0138733
-0.0147044
-0.0111791
-0.000463984
0.03352
0.0991179
0.22938
)
;

boundaryField
{
    movingWall
    {
        type            zeroGradient;
    }
    fixedWalls
    {
        type            zeroGradient;
    }
    frontAndBack
    {
        type            empty;
    }
}


// ************************************************************************* //
