/*--------------------------------*- C++ -*----------------------------------*\
  =========                 |
  \\      /  F ield         | OpenFOAM: The Open Source CFD Toolbox
   \\    /   O peration     | Website:  https://openfoam.org
    \\  /    A nd           | Version:  10
     \\/     M anipulation  |
\*---------------------------------------------------------------------------*/
FoamFile
{
    format      ascii;
    class       volScalarField;
    location    "0.075";
    object      p;
}
// * * * * * * * * * * * * * * * * * * * * * * * * * * * * * * * * * * * * * //

dimensions      [0 2 -2 0 0 0 0];

internalField   nonuniform List<scalar> 
475
(
0.123181
-0.0928786
-0.15853
-0.205399
-0.35655
0.105868
-0.0836258
-0.114136
-0.107955
-0.0586472
0.118841
-0.0630033
-0.0853597
-0.0624688
-0.0464679
0.13425
-0.046601
-0.0650663
-0.0373034
-0.0139192
0.163289
-0.029822
-0.0518532
-0.0243957
-0.00232194
-0.279745
0.0527951
0.149523
0.153002
0.150768
0.149103
0.14687
0.144111
0.140973
0.137574
0.134003
0.130321
0.126567
0.122767
0.118937
0.115085
0.111218
0.10734
0.103454
0.0995629
0.0956685
0.0917713
0.0878716
0.0839698
0.0800666
0.0761627
0.0722586
0.0683542
0.0644495
0.0605443
0.0566386
0.0527326
0.0488265
0.0449206
0.0410147
0.037109
0.0332032
0.0292972
0.0253911
0.0214847
0.0175788
0.0136717
0.00976448
0.00586045
0.0019549
-0.0532878
0.0175921
0.0919774
0.124915
0.136682
0.141033
0.141796
0.140677
0.138542
0.135814
0.132716
0.129374
0.125869
0.122252
0.118556
0.114803
0.111009
0.107185
0.103339
0.0994784
0.095606
0.0917248
0.0878369
0.0839439
0.0800474
0.0761487
0.0722483
0.0683467
0.0644438
0.0605399
0.0566352
0.05273
0.0488247
0.0449193
0.0410139
0.0371084
0.0332027
0.0292968
0.0253907
0.0214844
0.0175786
0.0136716
0.00976456
0.00586062
0.001955
-0.0151913
0.0340705
0.0830788
0.112363
0.126912
0.133957
0.136819
0.137204
0.136103
0.134082
0.131473
0.128476
0.125215
0.121774
0.118205
0.114545
0.110819
0.107045
0.103236
0.099402
0.0955493
0.0916826
0.0878055
0.0839208
0.0800305
0.0761363
0.0722392
0.0683398
0.0644385
0.0605358
0.0566322
0.0527279
0.0488232
0.0449184
0.0410132
0.0371079
0.0332023
0.0292964
0.0253904
0.0214842
0.0175785
0.0136716
0.00976457
0.00586073
0.00195504
0.0119562
0.0438693
0.0776558
0.103255
0.119105
0.128074
0.132576
0.134203
0.133988
0.132586
0.130408
0.127711
0.124663
0.121373
0.117912
0.114331
0.110661
0.106929
0.103151
0.099339
0.0955027
0.0916481
0.0877801
0.0839021
0.0800168
0.0761262
0.0722316
0.0683341
0.0644342
0.0605327
0.0566299
0.0527263
0.0488221
0.0449175
0.0410126
0.0371074
0.0332019
0.0292961
0.0253902
0.0214841
0.0175785
0.0136715
0.00976453
0.00586053
0.00195481
0.0200673
0.0471431
0.0751629
0.0983431
0.114374
0.124266
0.129715
0.132121
0.132493
0.131516
0.129639
0.127158
0.124263
0.121082
0.1177
0.114175
0.110547
0.106845
0.103089
0.0992938
0.0954694
0.0916236
0.087762
0.0838888
0.080007
0.0761189
0.0722262
0.0683301
0.0644314
0.0605306
0.0566285
0.0527252
0.0488213
0.0449168
0.0410119
0.0371067
0.0332013
0.0292957
0.02539
0.021484
0.0175785
0.0136717
0.00976472
0.00586061
0.00195497
0.162721
0.170148
0.174216
0.174272
0.171281
0.166498
0.160914
0.155137
0.149476
0.144058
0.138911
0.134017
0.129342
0.124843
0.120486
0.116239
0.112077
0.107979
0.10393
0.0999159
0.0959298
0.0919647
0.0880152
0.0840768
0.0801463
0.0762218
0.0723019
0.0683858
0.0644727
0.0605617
0.0566519
0.0527428
0.0488343
0.0449263
0.0410187
0.0371116
0.0332048
0.0292983
0.0253919
0.0214854
0.0175795
0.0136724
0.00976469
0.00585987
0.00195455
0.138128
0.1537
0.163613
0.167423
0.166712
0.163345
0.158678
0.153518
0.148289
0.14318
0.13826
0.133534
0.128982
0.124575
0.120287
0.116092
0.111968
0.107898
0.103869
0.0998711
0.0958969
0.0919408
0.0879976
0.0840636
0.0801363
0.0762142
0.0722965
0.0683822
0.0644703
0.0605599
0.0566505
0.0527415
0.0488331
0.0449252
0.0410179
0.0371111
0.0332045
0.0292981
0.0253918
0.0214853
0.0175794
0.0136722
0.00976465
0.00586005
0.00195457
0.084983
0.123464
0.14576
0.156924
0.160231
0.159089
0.155732
0.151404
0.146736
0.142027
0.137398
0.132888
0.128498
0.124213
0.120017
0.11589
0.111818
0.107786
0.103786
0.0998093
0.0958513
0.0919071
0.0879725
0.0840448
0.0801223
0.0762039
0.072289
0.0683767
0.0644663
0.0605569
0.0566481
0.0527397
0.0488317
0.0449242
0.0410172
0.0371106
0.0332042
0.029298
0.0253917
0.0214853
0.0175793
0.0136721
0.00976464
0.00586026
0.00195479
-0.0337957
0.0758063
0.121104
0.144564
0.153234
0.154551
0.152521
0.149029
0.144947
0.140671
0.136372
0.132113
0.127914
0.123775
0.119689
0.115646
0.111635
0.10765
0.103684
0.0997342
0.0957957
0.0918657
0.0879416
0.0840217
0.0801052
0.0761914
0.0722798
0.06837
0.0644612
0.0605529
0.056645
0.0527374
0.0488301
0.0449232
0.0410166
0.0371102
0.033204
0.0292977
0.0253914
0.021485
0.0175791
0.013672
0.00976461
0.00586035
0.00195479
-0.489797
0.00302607
0.0987079
0.135549
0.14814
0.150812
0.149515
0.146605
0.14303
0.139182
0.13523
0.131246
0.12726
0.123285
0.119322
0.115372
0.111431
0.107498
0.103571
0.0996504
0.0957335
0.0918194
0.087907
0.083996
0.0800861
0.0761774
0.0722696
0.0683624
0.0644554
0.0605485
0.0566416
0.0527349
0.0488283
0.044922
0.0410159
0.0371098
0.0332036
0.0292974
0.0253911
0.0214847
0.0175789
0.0136718
0.00976462
0.00586051
0.00195491
)
;

boundaryField
{
    inlet
    {
        type            zeroGradient;
    }
    outlet
    {
        type            fixedValue;
        value           uniform 0;
    }
    upperWall
    {
        type            zeroGradient;
    }
    lowerWall
    {
        type            zeroGradient;
    }
    frontAndBack
    {
        type            empty;
    }
}


// ************************************************************************* //
