/*--------------------------------*- C++ -*----------------------------------*\
  =========                 |
  \\      /  F ield         | OpenFOAM: The Open Source CFD Toolbox
   \\    /   O peration     | Website:  https://openfoam.org
    \\  /    A nd           | Version:  10
     \\/     M anipulation  |
\*---------------------------------------------------------------------------*/
FoamFile
{
    format      ascii;
    class       surfaceScalarField;
    location    "1.025";
    object      phi;
}
// * * * * * * * * * * * * * * * * * * * * * * * * * * * * * * * * * * * * * //

dimensions      [0 3 -1 0 0 0 0];

internalField   nonuniform List<scalar> 
890
(
0.00967128
0.000328724
0.00967628
-5.00404e-06
0.00953636
0.000139924
0.00957211
-3.57513e-05
3.22824e-05
0.00953983
0.0102362
9.25044e-05
0.0102377
-6.49274e-06
0.0104753
-9.77153e-05
0.0105487
-0.000109083
-0.000384557
0.0109655
0.0101106
-1.81453e-05
0.0102358
-0.00013163
0.0103291
-0.00019102
0.010476
-0.000255971
-0.000475139
0.0105666
0.0100973
-0.000115439
0.0102041
-0.000238472
0.0103275
-0.000314363
0.0103495
-0.000278017
-0.000370349
0.0102447
0.00988456
0.00964609
0.00933173
0.00905371
0.00868336
0.0105072
-0.000333312
-0.000634046
0.0109712
-0.00145538
0.00099135
0.0111516
-0.00271739
0.00253703
0.010688
-0.00367719
0.00414079
0.00979156
-0.00392772
0.00482414
0.00894857
-0.00333074
0.00417373
0.00827341
-0.00224171
0.00291688
0.00756484
-0.00118876
0.00189733
0.00686538
-0.00056926
0.00126872
0.00630381
-0.000317971
0.000879537
0.00591721
-0.000232811
0.000619411
0.00567627
-0.000193662
0.000434604
0.0055351
-0.000160748
0.000301914
0.00545547
-0.000128166
0.000207803
0.00541149
-9.81436e-05
0.000142121
0.00538732
-7.26859e-05
9.68579e-05
0.00537383
-5.24166e-05
6.59029e-05
0.00536608
-3.70481e-05
4.47992e-05
0.00536148
-2.57945e-05
3.0389e-05
0.00535869
-1.77426e-05
2.05419e-05
0.00535694
-1.2079e-05
1.38229e-05
0.00535584
-8.14508e-06
9.25113e-06
0.00535512
-5.43944e-06
6.15125e-06
0.00535466
-3.59436e-06
4.05803e-06
0.00535436
-2.34698e-06
2.65165e-06
0.00535415
-1.51178e-06
1.71267e-06
0.00535402
-9.58463e-07
1.09071e-06
0.00535394
-5.95873e-07
6.826e-07
0.00535388
-3.60759e-07
4.17464e-07
0.00535384
-2.0988e-07
2.47044e-07
0.00535382
-1.14288e-07
1.38891e-07
0.0053538
-5.50416e-08
7.14533e-08
0.00535379
-1.95911e-08
3.04094e-08
0.00535378
4.75004e-10
6.35123e-09
0.00535378
1.07359e-08
-6.49763e-09
0.00535378
1.5196e-08
-1.2927e-08
0.00535378
1.58468e-08
-1.46644e-08
0.00535377
1.46733e-08
-1.41858e-08
0.00535377
1.24274e-08
-1.2223e-08
0.00535377
9.78475e-09
-9.36449e-09
0.00535377
7.95802e-09
-7.68879e-09
0.00535377
3.78507e-09
-3.49098e-09
0.00535377
1.24051e-09
-9.48281e-10
0.00535377
-5.49752e-10
6.26029e-10
-8.37315e-09
7.79493e-09
0.0110731
-0.000440871
0.0107259
-0.00110821
0.0100485
-0.00204002
0.00850403
-0.00213269
0.00638367
-0.00180736
0.00496659
-0.00191367
0.00459302
-0.00186814
0.00481424
-0.00140998
0.00512263
-0.000877647
0.00532599
-0.000521336
0.00542165
-0.000328464
0.00545144
-0.000223455
0.00544919
-0.000158504
0.00543431
-0.000113285
0.00541643
-8.0263e-05
0.00539994
-5.61953e-05
0.00538652
-3.89926e-05
0.00537642
-2.69481e-05
0.00536918
-1.85583e-05
0.00536413
-1.26867e-05
0.00536064
-8.59341e-06
0.00535825
-5.75798e-06
0.00535663
-3.81085e-06
0.00535552
-2.48689e-06
0.00535477
-1.59681e-06
0.00535426
-1.00602e-06
0.00535392
-6.19006e-07
0.00535369
-3.68678e-07
0.00535354
-2.08893e-07
0.00535344
-1.08569e-07
0.00535337
-4.70979e-08
0.00535333
-1.11773e-08
0.0053533
7.73652e-09
0.00535329
1.79876e-08
0.00535328
2.15107e-08
0.00535327
2.12762e-08
0.00535327
1.95194e-08
0.00535326
1.69055e-08
0.00535326
1.38999e-08
0.00535326
1.12576e-08
0.00535326
8.48122e-09
0.00535326
4.41867e-09
0.00535326
1.84967e-09
0.00535326
-7.61461e-10
-8.24579e-09
0.0107003
-0.000574607
0.0105226
-0.000930474
0.00999173
-0.00150919
0.00953448
-0.00167544
0.00912882
-0.0014017
0.00835439
-0.00113924
0.0074516
-0.000965346
0.00674043
-0.000698809
0.00628799
-0.000425209
0.00600393
-0.000237274
0.00580955
-0.000134087
0.00566843
-8.23353e-05
0.00556588
-5.59542e-05
0.00549352
-4.09238e-05
0.00544416
-3.08958e-05
0.00541125
-2.32888e-05
0.00538941
-1.71546e-05
0.00537476
-1.22972e-05
0.0053648
-8.59378e-06
0.00535797
-5.86403e-06
0.00535329
-3.91391e-06
0.00535008
-2.54628e-06
0.00534788
-1.61178e-06
0.00534638
-9.87062e-07
0.00534536
-5.78614e-07
0.00534468
-3.18079e-07
0.00534421
-1.56368e-07
0.0053439
-5.91514e-08
0.0053437
-3.1732e-09
0.00534356
2.69599e-08
0.00534348
4.11141e-08
0.00534342
4.5482e-08
0.00534338
4.40899e-08
0.00534336
3.96754e-08
0.00534335
3.45908e-08
0.00534334
2.83692e-08
0.00534334
2.39479e-08
0.00534333
1.88613e-08
0.00534333
1.49745e-08
0.00534333
1.28382e-08
0.00534333
7.62781e-09
0.00534333
5.34816e-09
0.00534333
3.38347e-09
0.00534333
-1.29034e-09
-7.18837e-09
0.0102289
-0.000558749
0.00996796
-0.000669561
0.00922229
-0.000763508
0.00840832
-0.000861464
0.00782419
-0.000817577
0.00729905
-0.000614104
0.00668063
-0.000346918
0.00613673
-0.000154911
0.00577315
-6.16324e-05
0.00556285
-2.69762e-05
0.00544499
-1.6223e-05
0.00537501
-1.23602e-05
0.00532887
-9.8057e-06
0.00529539
-7.44711e-06
0.00526977
-5.27619e-06
0.00524989
-3.41131e-06
0.00523472
-1.98081e-06
0.00522353
-1.10506e-06
0.00521547
-5.42648e-07
0.00520979
-1.7926e-07
0.00520585
2.82857e-08
0.00520313
1.72985e-07
0.00520128
2.41232e-07
0.00520003
2.62164e-07
0.00519919
2.54916e-07
0.00519864
2.31971e-07
0.00519828
2.02442e-07
0.00519805
1.71966e-07
0.00519791
1.4346e-07
0.00519781
1.18083e-07
0.00519776
9.5995e-08
0.00519773
7.68213e-08
0.00519771
6.06621e-08
0.0051977
4.69395e-08
0.0051977
3.6735e-08
0.0051977
2.75093e-08
0.0051977
2.25453e-08
0.00519771
1.67042e-08
0.00519771
1.30388e-08
0.00519771
1.19648e-08
0.00519771
4.92955e-09
0.00519771
5.52312e-09
0.00519771
4.19045e-09
0.00519771
-2.36998e-09
-5.13359e-09
0.00812461
0.00745505
0.00669154
0.00583008
0.0050125
0.0043984
0.00405148
0.00389657
0.00383494
0.00380796
0.00379174
0.00377938
0.00376957
0.00376212
0.00375685
0.00375344
0.00375146
0.00375035
0.00374981
0.00374963
0.00374966
0.00374983
0.00375007
0.00375033
0.00375059
0.00375082
0.00375102
0.00375119
0.00375134
0.00375146
0.00375155
0.00375163
0.00375169
0.00375174
0.00375177
0.0037518
0.00375182
0.00375184
0.00375185
0.00375186
0.00375187
0.00375188
0.00375188
0.00375188
-0.000808017
0.000808017
-0.00135305
0.000545034
-0.00145135
9.82997e-05
-0.000958668
-0.000492683
-9.889e-05
-0.000859778
0.000843757
-0.000942647
0.00170106
-0.000857304
0.00238136
-0.000680297
0.0028736
-0.000492246
0.00320693
-0.00033333
0.0034221
-0.000215168
0.0035564
-0.000134302
0.00363829
-8.18866e-05
0.00368736
-4.90717e-05
0.00371634
-2.89825e-05
0.00373322
-1.68743e-05
0.00374288
-9.66152e-06
0.00374829
-5.40579e-06
0.0037512
-2.91542e-06
0.00375267
-1.47151e-06
0.00375332
-6.48254e-07
0.00375352
-1.9567e-07
0.00375349
2.62119e-08
0.00375334
1.49879e-07
0.00375315
1.93699e-07
0.00375295
2.00097e-07
0.00375276
1.88327e-07
0.00375259
1.67526e-07
0.00375245
1.4246e-07
0.00375233
1.16749e-07
0.00375224
9.31569e-08
0.00375216
7.35675e-08
0.00375211
5.80188e-08
0.00375206
4.67254e-08
0.00375202
3.72201e-08
0.00375199
3.06121e-08
0.00375197
2.27004e-08
0.00375195
1.79072e-08
0.00375194
1.29072e-08
0.00375193
6.90272e-09
0.00375192
8.35186e-09
0.00375192
3.34664e-09
0.00375192
6.45625e-10
0.00375191
5.18118e-09
2.27726e-09
-0.000680194
0.00148821
-0.00148008
0.00134491
-0.00147275
9.09743e-05
-0.000831229
-0.0011342
0.000240932
-0.00193194
0.00142545
-0.00212717
0.00248415
-0.00191601
0.00331992
-0.00151607
0.0039295
-0.00110182
0.00435266
-0.000756497
0.00463814
-0.000500642
0.00482793
-0.000324093
0.00495332
-0.000207277
0.00503601
-0.000131765
0.00509058
-8.35516e-05
0.00512667
-5.29597e-05
0.00515059
-3.35814e-05
0.00516647
-2.12939e-05
0.00517704
-1.34829e-05
0.00518408
-8.50469e-06
0.00518876
-5.32964e-06
0.00519187
-3.30912e-06
0.00519393
-2.02926e-06
0.00519529
-1.21474e-06
0.00519619
-7.0225e-07
0.00519677
-3.82966e-07
0.00519715
-1.88036e-07
0.00519739
-7.34458e-08
0.00519754
-1.00279e-08
0.00519763
2.22925e-08
0.00519769
3.64012e-08
0.00519772
4.12817e-08
0.00519774
4.11012e-08
0.00519775
3.93362e-08
0.00519775
3.5346e-08
0.00519775
3.11478e-08
0.00519775
2.47579e-08
0.00519774
1.98791e-08
0.00519774
1.47936e-08
0.00519774
9.24483e-09
0.00519774
8.96157e-09
0.00519774
4.5403e-09
0.00519774
1.47638e-09
0.00519774
3.67075e-09
-7.43216e-10
-0.00137278
0.00286099
-0.00170084
0.00167298
-0.00126794
-0.00034192
-0.000326636
-0.00207551
0.000871567
-0.00313014
0.00205383
-0.00330943
0.00303148
-0.00289366
0.00377254
-0.00225712
0.00429552
-0.0016248
0.00464619
-0.00110717
0.00487625
-0.000730706
0.00502755
-0.000475385
0.00512832
-0.000308048
0.0051963
-0.000199751
0.00524258
-0.000129831
0.00527428
-8.46535e-05
0.00529604
-5.53463e-05
0.005311
-3.6253e-05
0.00532128
-2.37611e-05
0.00532833
-1.55593e-05
0.00533317
-1.0164e-05
0.00533647
-6.61407e-06
0.00533872
-4.27977e-06
0.00534025
-2.74473e-06
0.00534129
-1.73788e-06
0.00534199
-1.08099e-06
0.00534246
-6.56686e-07
0.00534277
-3.86698e-07
0.00534298
-2.18019e-07
0.00534311
-1.14533e-07
0.0053432
-5.21797e-08
0.00534326
-1.52509e-08
0.0053433
4.86212e-09
0.00534332
1.7382e-08
0.00534333
2.23219e-08
0.00534334
2.3211e-08
0.00534334
2.06788e-08
0.00534334
1.75107e-08
0.00534335
1.36962e-08
0.00534335
9.60855e-09
0.00534335
8.0456e-09
0.00534335
4.37679e-09
0.00534335
1.64409e-09
0.00534335
1.69232e-09
-4.08665e-09
-0.000586941
0.00344793
0.000313622
0.000772414
0.001237
-0.00126529
0.00233081
-0.00316932
0.00338807
-0.0041874
0.00415278
-0.00407413
0.00456774
-0.00330863
0.00480285
-0.00249223
0.00496314
-0.00178508
0.0050785
-0.00122253
0.005158
-0.000810203
0.00521222
-0.000529606
0.00525025
-0.000346085
0.00527792
-0.00022742
0.00529847
-0.00015038
0.00531375
-9.99295e-05
0.00532502
-6.66218e-05
0.00533326
-4.44918e-05
0.00533922
-2.97151e-05
0.00534347
-1.98174e-05
0.00534649
-1.31811e-05
0.00534861
-8.73352e-06
0.00535009
-5.75629e-06
0.00535111
-3.7663e-06
0.00535181
-2.44018e-06
0.00535229
-1.5613e-06
0.00535262
-9.83805e-07
0.00535284
-6.08485e-07
0.00535299
-3.67332e-07
0.00535309
-2.13965e-07
0.00535315
-1.17412e-07
0.0053532
-5.74132e-08
0.00535322
-2.10968e-08
0.00535324
1.44218e-10
0.00535325
1.1242e-08
0.00535326
1.61687e-08
0.00535326
1.64322e-08
0.00535327
1.49168e-08
0.00535327
1.22962e-08
0.00535327
9.09468e-09
0.00535327
7.55754e-09
0.00535327
3.92234e-09
0.00535327
1.26916e-09
0.00535327
4.37953e-10
-6.34098e-09
0.00281388
0.00457765
0.00584938
0.00682084
0.00745758
0.00755718
0.00716543
0.00657052
0.00605416
0.00571117
0.00552037
0.00542537
0.0053812
0.00536158
0.00535333
0.00535025
0.00534953
0.00534984
0.00535052
0.00535124
0.00535188
0.0053524
0.0053528
0.00535309
0.0053533
0.00535345
0.00535356
0.00535363
0.00535368
0.00535371
0.00535374
0.00535375
0.00535376
0.00535377
0.00535377
0.00535377
0.00535378
0.00535378
0.00535378
0.00535378
0.00535378
0.00535378
0.00535378
0.00535378
)
;

boundaryField
{
    inlet
    {
        type            calculated;
        value           nonuniform List<scalar> 5(-0.01 -0.01 -0.01 -0.01 -0.01);
    }
    outlet
    {
        type            calculated;
        value           nonuniform List<scalar> 10(0.00535377 0.00535326 0.00534333 0.00519771 0.00375187 0.00375191 0.00519774 0.00534335 0.00535327 0.00535378);
    }
    upperWall
    {
        type            calculated;
        value           uniform 0;
    }
    lowerWall
    {
        type            calculated;
        value           uniform 0;
    }
    frontAndBack
    {
        type            empty;
        value           nonuniform List<scalar> 0();
    }
}


// ************************************************************************* //
