/*--------------------------------*- C++ -*----------------------------------*\
  =========                 |
  \\      /  F ield         | OpenFOAM: The Open Source CFD Toolbox
   \\    /   O peration     | Website:  https://openfoam.org
    \\  /    A nd           | Version:  10
     \\/     M anipulation  |
\*---------------------------------------------------------------------------*/
FoamFile
{
    format      ascii;
    class       volVectorField;
    location    "0.575";
    object      U;
}
// * * * * * * * * * * * * * * * * * * * * * * * * * * * * * * * * * * * * * //

dimensions      [0 1 -1 0 0 0 0];

internalField   nonuniform List<vector> 
496
(
(9.93306 0.0572437 0)
(10.0386 -0.215623 0)
(10.308 -0.0832521 0)
(10.7883 -0.284391 0)
(10.0434 0.342998 0)
(9.89149 -1.14985 0)
(10.4379 -0.250133 0)
(10.8034 -1.27411 0)
(10.9692 1.06414 0)
(8.81399 -2.63203 0)
(11.6277 -0.0761572 0)
(10.2882 -4.11534 0)
(12.0154 1.39012 0)
(7.85915 -2.59562 0)
(13.0644 0.658277 0)
(9.47728 -6.60777 0)
(11.4654 -0.201228 1.01736e-18)
(12.2175 -0.156159 1.67328e-18)
(11.7847 -0.460065 -2.51183e-18)
(12.4552 0.0165611 4.06616e-18)
(13.2019 -1.78746 1.49373e-18)
(12.7999 -0.772528 -5.74144e-18)
(13.3961 -5.11906 -3.78552e-17)
(14.7511 -4.54674 6.72655e-17)
(12.7145 -0.183464 0)
(13.0476 -0.0737993 0)
(13.1752 0.0171185 0)
(13.0972 0.0656037 0)
(13.0424 -0.00928001 0)
(13.521 -0.175096 0)
(13.6284 -0.288767 0)
(13.6454 -0.295413 0)
(12.8219 0.761765 0)
(12.8812 0.576347 0)
(13.2071 0.663544 0)
(13.506 1.01351 0)
(11.4506 -2.71428 0)
(9.8435 -1.78885 0)
(9.39907 -0.292202 0)
(11.2278 -0.0286878 0)
(13.0049 0.208535 0)
(12.9235 0.311645 0)
(12.6167 0.268982 0)
(12.1173 0.209493 0)
(11.7896 0.238612 0)
(11.7823 0.30532 0)
(11.9098 0.354154 0)
(12.0052 0.378239 0)
(12.0523 0.407748 0)
(12.0926 0.480429 0)
(12.1389 0.588796 0)
(12.1523 0.678337 0)
(12.0971 0.739824 0)
(11.9861 0.790319 0)
(11.8409 0.83055 0)
(11.6742 0.870117 0)
(11.4944 0.907054 0)
(11.3137 0.938359 0)
(11.1368 0.96561 0)
(10.9603 0.981523 0)
(10.7642 0.999456 0)
(10.5543 1.00833 0)
(10.3365 1.02717 0)
(10.1425 1.02898 0)
(9.96756 1.04694 0)
(9.82688 1.02659 0)
(9.66846 1.04119 0)
(9.51765 1.00725 0)
(9.34482 1.03964 0)
(9.21985 0.987627 0)
(9.08096 1.03189 0)
(8.98501 0.961473 0)
(8.84769 1.02437 0)
(8.75691 0.942006 0)
(8.63255 1.01585 0)
(8.55324 0.933589 0)
(8.45537 1.00793 0)
(8.35927 0.9343 0)
(8.30281 0.979235 0)
(8.17011 0.911575 0)
(13.642 -0.158181 0)
(13.4166 0.0302681 0)
(13.0109 0.0560445 0)
(12.6535 -0.06953 0)
(12.5095 -0.172796 0)
(12.5635 -0.246079 0)
(12.6884 -0.343022 0)
(12.8013 -0.474572 0)
(12.9266 -0.581184 0)
(13.074 -0.637211 0)
(13.1668 -0.637654 0)
(13.1721 -0.624918 0)
(13.124 -0.612478 0)
(13.0417 -0.607416 0)
(12.9342 -0.6028 0)
(12.8139 -0.595986 0)
(12.6731 -0.590635 0)
(12.5326 -0.580714 0)
(12.3859 -0.588073 0)
(12.2469 -0.585519 0)
(12.0907 -0.612352 0)
(11.9265 -0.599905 0)
(11.754 -0.631011 0)
(11.589 -0.597984 0)
(11.4493 -0.644043 0)
(11.3139 -0.608211 0)
(11.2101 -0.680237 0)
(11.0647 -0.628892 0)
(10.9589 -0.701098 0)
(10.8161 -0.639053 0)
(10.7523 -0.718441 0)
(10.643 -0.662492 0)
(10.5892 -0.729959 0)
(10.4925 -0.688166 0)
(10.4398 -0.736876 0)
(10.3786 -0.720414 0)
(10.3364 -0.744136 0)
(10.3049 -0.743117 0)
(10.2761 -0.748267 0)
(10.2659 -0.750301 0)
(13.7088 0.930103 0)
(13.561 0.800795 0)
(13.0996 0.690734 0)
(12.6628 0.591083 0)
(12.5101 0.48319 0)
(12.5569 0.411199 0)
(12.5994 0.342004 0)
(12.6401 0.316983 0)
(12.7124 0.374731 0)
(12.8553 0.514359 0)
(12.9641 0.650757 0)
(13.045 0.785731 0)
(13.0429 0.896606 0)
(13.0478 1.00122 0)
(13.004 1.08244 0)
(12.9987 1.14776 0)
(12.937 1.19177 0)
(12.9233 1.21758 0)
(12.8571 1.23725 0)
(12.8432 1.22209 0)
(12.7722 1.22383 0)
(12.7352 1.17695 0)
(12.6522 1.1906 0)
(12.598 1.13281 0)
(12.535 1.16546 0)
(12.4799 1.08783 0)
(12.4488 1.12556 0)
(12.362 1.02935 0)
(12.336 1.08004 0)
(12.2062 0.990043 0)
(12.2198 1.04506 0)
(12.0692 0.958252 0)
(12.1093 1.00078 0)
(11.9161 0.932547 0)
(11.9634 0.962924 0)
(11.7493 0.915829 0)
(11.7998 0.929099 0)
(11.5756 0.894817 0)
(11.6137 0.895447 0)
(11.3813 0.86611 0)
(10.1247 0.0718509 0)
(9.81458 0.184786 0)
(9.56345 0.0201918 0)
(9.54878 0.0356519 0)
(9.68571 -0.012423 0)
(9.85423 -0.302621 0)
(9.85869 -0.688216 0)
(9.81573 -0.95494 0)
(9.84869 -1.04246 0)
(9.88102 -1.01413 0)
(9.83 -0.96796 0)
(9.74132 -0.892241 0)
(9.71519 -0.805719 0)
(9.6974 -0.688358 0)
(9.74524 -0.590548 0)
(9.75042 -0.487438 0)
(9.85226 -0.420171 0)
(9.87441 -0.340649 0)
(10.0301 -0.302457 0)
(10.0567 -0.252791 0)
(10.2394 -0.249387 0)
(10.2475 -0.227883 0)
(10.4332 -0.235339 0)
(10.4391 -0.218895 0)
(10.6243 -0.226695 0)
(10.6536 -0.219943 0)
(10.8202 -0.240916 0)
(10.86 -0.250905 0)
(10.9797 -0.27479 0)
(11.0304 -0.275646 0)
(11.1249 -0.295806 0)
(11.196 -0.297825 0)
(11.2667 -0.32612 0)
(11.3364 -0.325937 0)
(11.3796 -0.35009 0)
(11.4529 -0.348602 0)
(11.4776 -0.369049 0)
(11.5569 -0.374693 0)
(11.5592 -0.389551 0)
(11.6451 -0.400401 0)
(12.1477 0.653934 -9.11845e-18)
(8.03039 -0.776235 -1.60348e-17)
(11.1407 0.105297 2.75621e-17)
(5.02546 -4.24935 -7.69737e-17)
(12.916 -0.39039 8.97874e-18)
(7.41482 0.669612 1.58436e-17)
(12.1902 0.397648 -2.7195e-17)
(4.66293 4.67638 7.73656e-17)
(-4.57677 1.15785 0)
(-1.59221 -2.31001 0)
(2.79587 2.9077 0)
(-0.697678 4.26406 0)
(-1.7262 -0.0447896 4.07112e-17)
(-1.1913 -3.70623 0)
(-5.85255 0.0831098 0)
(2.96128 1.69257 0)
(-2.66043 -0.59437 0)
(0.640178 0.336142 0)
(1.05387 0.564653 0)
(1.98689 0.669466 0)
(2.31985 0.535557 0)
(2.74578 0.486945 0)
(2.97515 0.593951 0)
(3.03719 0.711284 0)
(2.91285 0.787633 0)
(2.77532 0.868895 0)
(2.68533 0.947751 0)
(2.62551 0.987482 0)
(2.67363 1.00571 0)
(2.76282 0.99083 0)
(2.87791 0.958922 0)
(3.0671 0.92431 0)
(3.29166 0.895543 0)
(3.5451 0.85673 0)
(3.82837 0.827368 0)
(4.11535 0.783316 0)
(4.40109 0.755023 0)
(4.68366 0.715487 0)
(4.95035 0.705702 0)
(5.22431 0.676327 0)
(5.47215 0.681184 0)
(5.75943 0.650911 0)
(5.9805 0.656521 0)
(6.25987 0.621528 0)
(6.43154 0.639545 0)
(6.69636 0.609404 0)
(6.84384 0.63779 0)
(7.1168 0.603384 0)
(7.23951 0.634695 0)
(7.50725 0.602658 0)
(7.59236 0.634749 0)
(7.87112 0.612175 0)
(7.93061 0.636091 0)
(8.22041 0.625792 0)
(8.25437 0.638868 0)
(8.54165 0.638684 0)
(-0.649776 -0.412835 0)
(2.63555 -1.81665 0)
(2.63913 -1.46236 0)
(2.90902 -0.944373 0)
(3.05025 -0.715406 0)
(3.33333 -0.828023 0)
(3.33821 -0.993886 0)
(3.14639 -1.0302 0)
(2.84254 -0.969643 0)
(2.61017 -0.924267 0)
(2.48617 -0.924847 0)
(2.42904 -0.925821 0)
(2.49214 -0.920039 0)
(2.59445 -0.898189 0)
(2.72548 -0.866236 0)
(2.93203 -0.836399 0)
(3.17134 -0.815111 0)
(3.43936 -0.784523 0)
(3.73451 -0.763156 0)
(4.03346 -0.726491 0)
(4.32871 -0.704725 0)
(4.62142 -0.671006 0)
(4.89605 -0.666123 0)
(5.17843 -0.641131 0)
(5.43286 -0.650029 0)
(5.72668 -0.623636 0)
(5.9531 -0.633245 0)
(6.23705 -0.601821 0)
(6.41292 -0.623452 0)
(6.68051 -0.596036 0)
(6.83109 -0.627134 0)
(7.10553 -0.594556 0)
(7.23047 -0.627633 0)
(7.49923 -0.596772 0)
(7.58607 -0.629688 0)
(7.86612 -0.607793 0)
(7.92656 -0.631618 0)
(8.21791 -0.622109 0)
(8.25196 -0.635121 0)
(8.54128 -0.636494 0)
(11.6603 -1.87559 0)
(8.6026 3.00105 0)
(12.4118 -1.35238 0)
(10.6101 6.9135 0)
(10.6244 -1.6154 0)
(9.36256 3.3222 0)
(11.1487 0.0854218 0)
(11.0447 4.47566 0)
(9.9704 -0.668983 0)
(9.85034 1.46752 0)
(10.0763 0.268087 0)
(10.8937 1.22463 0)
(9.94708 -0.0948623 0)
(9.89067 0.162652 0)
(10.0998 0.108715 0)
(10.7779 0.194837 0)
(12.7262 5.22516 4.73065e-17)
(16.089 4.67975 -7.50778e-17)
(13.1143 2.25667 0)
(13.581 0.768607 0)
(11.6345 0.415712 0)
(12.6118 -0.190313 0)
(11.4679 0.21689 0)
(12.2434 0.172591 0)
(9.93477 2.75484 0)
(10.3577 1.86103 0)
(10.4359 0.647905 0)
(10.7807 -0.448851 0)
(13.0551 -0.319287 0)
(13.2527 -0.822115 0)
(13.6114 -0.945994 0)
(13.9777 -1.11164 0)
(13.1888 -0.198587 0)
(13.6218 0.0329594 0)
(13.8743 0.168347 0)
(13.9422 0.15465 0)
(12.7845 0.191992 0)
(13.1242 0.167162 0)
(13.2173 0.105177 0)
(13.0996 -0.0618218 0)
(11.2418 -0.889539 0)
(11.5751 -1.14934 0)
(11.3094 -1.05328 0)
(11.1654 -0.710852 0)
(10.9956 -0.187909 0)
(10.7677 0.341085 0)
(10.5296 0.784845 0)
(10.2559 1.0734 0)
(10.0262 1.18855 0)
(9.85212 1.15935 0)
(9.69035 1.08566 0)
(9.52938 0.980719 0)
(9.44441 0.871433 0)
(9.39547 0.747573 0)
(9.44171 0.644082 0)
(9.4632 0.534117 0)
(9.58758 0.460765 0)
(9.63625 0.376505 0)
(9.8177 0.334719 0)
(9.86902 0.282172 0)
(10.0744 0.276435 0)
(10.1028 0.252403 0)
(10.3076 0.257399 0)
(10.33 0.238222 0)
(10.5313 0.243422 0)
(10.5738 0.234198 0)
(10.7534 0.252939 0)
(10.8035 0.261063 0)
(10.9332 0.28305 0)
(10.9916 0.282717 0)
(11.093 0.301504 0)
(11.1696 0.302931 0)
(11.2445 0.330135 0)
(11.3183 0.329405 0)
(11.3639 0.352715 0)
(11.4406 0.3508 0)
(11.4664 0.370996 0)
(11.5483 0.376144 0)
(11.5507 0.390779 0)
(11.6393 0.400627 0)
(14.054 -1.43138 0)
(13.5676 -1.51076 0)
(12.9823 -1.23577 0)
(12.5891 -0.883193 0)
(12.3467 -0.579876 0)
(12.1897 -0.323267 0)
(12.1193 -0.157426 0)
(12.1831 -0.109164 0)
(12.3154 -0.156215 0)
(12.4901 -0.290819 0)
(12.6068 -0.433683 0)
(12.6989 -0.582842 0)
(12.7403 -0.733168 0)
(12.7972 -0.874454 0)
(12.7909 -0.98517 0)
(12.8175 -1.0761 0)
(12.7852 -1.13997 0)
(12.7971 -1.18032 0)
(12.7524 -1.20925 0)
(12.7566 -1.20015 0)
(12.7006 -1.20542 0)
(12.6766 -1.16122 0)
(12.6044 -1.17703 0)
(12.5597 -1.12138 0)
(12.5045 -1.15628 0)
(12.4563 -1.08059 0)
(12.4302 -1.12029 0)
(12.3478 -1.0254 0)
(12.3246 -1.07753 0)
(12.1975 -0.988053 0)
(12.2125 -1.04388 0)
(12.0632 -0.956997 0)
(12.1039 -0.999964 0)
(11.9113 -0.931505 0)
(11.9595 -0.961923 0)
(11.7461 -0.914628 0)
(11.7974 -0.927603 0)
(11.5734 -0.893681 0)
(11.6114 -0.894256 0)
(11.3795 -0.865912 0)
(13.741 0.0146706 0)
(13.2143 -0.00643202 0)
(12.5219 0.0849912 0)
(12.0494 0.174669 0)
(11.9117 0.268099 0)
(11.947 0.40437 0)
(12.0601 0.547996 0)
(12.248 0.655814 0)
(12.4902 0.703713 0)
(12.7392 0.710831 0)
(12.9247 0.684557 0)
(12.995 0.654584 0)
(12.9865 0.63217 0)
(12.9433 0.612175 0)
(12.8635 0.597542 0)
(12.7601 0.586876 0)
(12.6299 0.580898 0)
(12.4968 0.572304 0)
(12.3547 0.58177 0)
(12.2193 0.581531 0)
(12.0659 0.61024 0)
(11.9045 0.599359 0)
(11.7347 0.631365 0)
(11.5726 0.598818 0)
(11.4352 0.644866 0)
(11.3022 0.608956 0)
(11.2001 0.680935 0)
(11.056 0.629653 0)
(10.9511 0.70221 0)
(10.8092 0.640332 0)
(10.746 0.720097 0)
(10.6372 0.663903 0)
(10.5838 0.73135 0)
(10.488 0.689136 0)
(10.4363 0.737852 0)
(10.3763 0.721217 0)
(10.3345 0.744583 0)
(10.3035 0.743344 0)
(10.274 0.747972 0)
(10.2648 0.750216 0)
(12.817 -0.282518 0)
(12.3439 -0.507238 0)
(11.7946 -0.615752 0)
(11.4255 -0.605688 0)
(11.3085 -0.542219 0)
(11.3112 -0.465366 0)
(11.3607 -0.402945 0)
(11.4813 -0.374141 0)
(11.6591 -0.382148 0)
(11.8263 -0.428869 0)
(11.9406 -0.518491 0)
(11.995 -0.620441 0)
(11.9807 -0.689994 0)
(11.9024 -0.749428 0)
(11.7788 -0.799291 0)
(11.6245 -0.846952 0)
(11.4518 -0.890363 0)
(11.2759 -0.926728 0)
(11.1028 -0.957646 0)
(10.9297 -0.976073 0)
(10.7372 -0.995445 0)
(10.5312 -1.00497 0)
(10.3168 -1.02394 0)
(10.1258 -1.02594 0)
(9.95348 -1.04414 0)
(9.81522 -1.02432 0)
(9.65856 -1.03946 0)
(9.50926 -1.00613 0)
(9.33736 -1.03889 0)
(9.21333 -0.987175 0)
(9.07467 -1.03153 0)
(8.97923 -0.961116 0)
(8.84226 -1.02403 0)
(8.75304 -0.941403 0)
(8.62982 -1.01517 0)
(8.55212 -0.932661 0)
(8.45426 -1.00738 0)
(8.35833 -0.934015 0)
(8.30103 -0.979396 0)
(8.1685 -0.912072 0)
)
;

boundaryField
{
    inlet
    {
        type            fixedValue;
        value           uniform (10 0 0);
    }
    outlet
    {
        type            zeroGradient;
    }
    obstacle
    {
        type            noSlip;
    }
    upperWall
    {
        type            noSlip;
    }
    lowerWall
    {
        type            noSlip;
    }
    frontAndBack
    {
        type            empty;
    }
}


// ************************************************************************* //
