/*--------------------------------*- C++ -*----------------------------------*\
  =========                 |
  \\      /  F ield         | OpenFOAM: The Open Source CFD Toolbox
   \\    /   O peration     | Website:  https://openfoam.org
    \\  /    A nd           | Version:  10
     \\/     M anipulation  |
\*---------------------------------------------------------------------------*/
FoamFile
{
    format      ascii;
    class       volScalarField;
    location    "9";
    object      p;
}
// * * * * * * * * * * * * * * * * * * * * * * * * * * * * * * * * * * * * * //

dimensions      [0 2 -2 0 0 0 0];

internalField   nonuniform List<scalar> 
496
(
29.4002
29.3611
25.9216
19.797
30.0471
30.5471
26.335
19.9984
34.944
32.7207
24.1641
13.5366
42.6622
39.7344
35.9227
20.0863
11.197
1.96676
11.0648
2.10045
-1.78308
-6.40929
-31.5664
-57.3876
-5.14153
-9.55855
-11.6172
-12.5876
-5.43874
-10.9783
-14.2094
-15.5172
0.330232
0.106951
-4.39747
-10.5615
-27.4929
-11.8776
-4.28648
-6.58925
-13.2562
-13.9789
-14.5324
-14.7916
-14.4656
-13.7367
-12.62
-11.4545
-10.4757
-9.23419
-7.87781
-6.65396
-6.03368
-5.69754
-5.6736
-5.54519
-4.88235
-3.94536
-2.85215
-1.9535
-0.909258
0.210203
1.25089
2.23981
2.92332
3.2719
2.81521
1.90592
0.920127
0.166673
-0.0875173
-0.44476
-0.585256
-0.587557
-0.397168
0.134238
0.599986
0.963338
0.801697
0.337526
-16.1004
-16.5881
-16.4541
-15.79
-14.8199
-13.5681
-12.3271
-11.3012
-10.1792
-8.87016
-7.74872
-6.71203
-5.88482
-5.47161
-5.44677
-5.55892
-5.10269
-4.22767
-3.22956
-2.19035
-1.03838
0.159202
1.50595
2.59734
3.33975
3.38681
2.7544
1.7418
0.79244
-0.215541
-0.574562
-0.840713
-0.922225
-0.927528
-0.696547
0.0166397
0.838721
1.39418
1.31468
0.595587
-15.9243
-18.6751
-18.5795
-17.7012
-16.2641
-14.3747
-12.7202
-11.3477
-9.88562
-8.68746
-7.759
-6.68014
-5.24344
-5.18649
-6.12679
-6.52389
-6.70048
-5.66446
-3.99679
-1.90927
-0.104355
1.29931
2.41048
3.35538
4.08069
3.61155
2.61229
1.29427
-0.563291
-1.71844
-2.87573
-2.62923
-1.51399
-0.430364
1.00145
1.47689
1.71451
1.44291
1.22012
0.934374
-14.1239
-17.4507
-17.2366
-17.6078
-17.5372
-15.6375
-13.965
-11.9923
-10.2902
-8.96796
-6.86333
-4.35934
-3.12474
-4.27501
-5.73244
-7.33131
-7.9908
-7.60167
-6.1395
-3.66816
-0.760302
2.92161
5.91909
6.68954
6.16704
4.21308
2.96331
1.40085
-0.796124
-2.91853
-4.69561
-4.54629
-3.88734
-2.15519
1.65635
5.4863
7.02621
5.43903
3.24148
1.20473
47.5969
48.9741
63.376
75.4213
47.6884
49.6353
63.6628
76.3109
-27.3192
-25.8073
-15.3734
-30.698
-26.5816
-24.9533
-18.6211
-15.2973
-19.7716
-13.828
-17.5099
-20.0411
-15.6194
-13.5593
-15.819
-13.0095
-10.5364
-9.48502
-8.22399
-6.9996
-6.36938
-5.5997
-5.40223
-5.75669
-5.98609
-5.62554
-4.2902
-3.10616
-1.33141
0.488712
1.34905
1.35337
0.685706
0.808866
0.946042
0.816954
0.0456633
-1.0624
-2.23866
-3.56199
-2.83361
-1.4078
-0.031792
0.942875
1.53297
0.808775
-0.160966
-0.335014
-26.2467
-17.7846
-16.7197
-18.4905
-15.9275
-15.8037
-13.5231
-10.0822
-10.2992
-11.4974
-11.1712
-10.1926
-9.11186
-7.71829
-5.83513
-3.72824
-1.9506
-0.343992
0.131578
-0.0846601
-0.505318
-0.982369
-2.16799
-3.54558
-3.71704
-2.88348
-1.50628
0.097248
1.73908
3.00247
3.49803
2.96106
1.87349
1.27991
0.833827
-0.0317994
-1.36938
-2.44063
-3.24478
-1.72966
43.3336
40.4733
37.1394
21.8954
36.1087
33.6122
25.3905
14.8128
31.087
31.3725
27.1316
20.7511
30.2319
30.3066
26.8631
20.6705
-27.7719
-54.0834
-0.378419
-5.18474
11.7485
2.8293
12.0872
2.79667
-23.5749
-6.13962
-9.81638
-14.0238
0.600689
-0.775717
-6.94514
-12.1354
-4.97931
-10.4604
-13.809
-15.6551
-4.40095
-9.1484
-11.5312
-12.7537
-15.9768
-17.4066
-16.5348
-14.8999
-12.2702
-11.727
-12.5405
-11.939
-10.5021
-10.5068
-11.4646
-11.524
-10.5106
-8.33836
-5.30288
-1.62815
1.89073
3.38798
3.21494
1.81292
-0.032991
-1.82586
-3.43584
-3.80762
-4.24488
-3.6285
-2.20208
0.12005
3.93035
7.76865
9.2989
8.55778
5.96866
3.8536
1.57216
-0.270988
-2.21708
-3.21042
-2.44372
-1.27049
-15.4289
-17.0303
-16.5146
-15.3333
-13.9688
-12.648
-12.0915
-12.1458
-11.5976
-10.9578
-10.9406
-10.4017
-8.7611
-6.54898
-4.4894
-2.69397
-1.11856
0.0301854
0.605782
0.152268
-0.915802
-2.22706
-2.80357
-3.04626
-2.75506
-1.68368
-0.124384
1.44718
3.13546
4.3329
5.49594
5.71802
4.99071
3.68073
1.68503
-0.110484
-1.77173
-2.27254
-1.76277
-0.743055
-16.3947
-16.5522
-16.0009
-14.9475
-13.7169
-12.3611
-11.3976
-11.1413
-11.1706
-10.7267
-10.0571
-9.26525
-7.96186
-6.38723
-4.79004
-3.25327
-1.53464
-0.444452
0.182542
0.216104
-0.187974
-0.610004
-1.26974
-1.44918
-1.18366
-0.639416
0.206647
1.20321
2.58574
3.74193
4.78155
5.32481
4.92725
3.98609
2.49477
0.89778
-0.0661766
-0.455087
-0.246586
0.0421407
-13.5306
-13.9952
-14.2424
-13.9574
-13.4727
-12.7491
-11.8831
-11.1529
-10.8553
-10.6378
-9.94032
-9.08807
-7.84245
-6.30021
-4.61251
-3.25562
-2.1754
-1.02356
-0.330438
-0.0649265
-0.307907
-0.577214
-0.953256
-1.28593
-1.01844
-0.361634
0.612371
1.59292
2.52674
3.46447
4.25873
4.93789
4.87514
4.20487
2.99456
1.60303
0.73887
0.433874
0.330399
0.10876
)
;

boundaryField
{
    inlet
    {
        type            zeroGradient;
    }
    outlet
    {
        type            fixedValue;
        value           uniform 0;
    }
    obstacle
    {
        type            zeroGradient;
    }
    upperWall
    {
        type            zeroGradient;
    }
    lowerWall
    {
        type            zeroGradient;
    }
    frontAndBack
    {
        type            empty;
    }
}


// ************************************************************************* //
