/*--------------------------------*- C++ -*----------------------------------*\
  =========                 |
  \\      /  F ield         | OpenFOAM: The Open Source CFD Toolbox
   \\    /   O peration     | Website:  https://openfoam.org
    \\  /    A nd           | Version:  10
     \\/     M anipulation  |
\*---------------------------------------------------------------------------*/
FoamFile
{
    format      ascii;
    class       surfaceScalarField;
    location    "9";
    object      phi;
}
// * * * * * * * * * * * * * * * * * * * * * * * * * * * * * * * * * * * * * //

dimensions      [0 3 -1 0 0 0 0];

internalField   nonuniform List<scalar> 
928
(
0.0965185
0.00348154
0.103414
-0.00689583
0.107189
-0.00377476
-0.0092636
0.116453
0.095001
0.00848056
0.105929
-0.0178238
0.10296
-0.000805982
-0.019045
0.112742
0.0955247
0.0129558
0.10905
-0.0313486
0.103869
0.0043743
-0.0403338
0.125158
0.102912
0.0100438
0.0936063
-0.0220428
0.0984773
-0.000496708
0.147234
-0.0890908
0.111184
0.00526855
-0.0162493
0.127433
0.109228
0.00878258
-0.0410955
0.134074
0.126809
0.00713129
-0.0464578
0.132172
0.154366
0.107908
0.126681
0.000752468
0.126998
-0.000317313
0.128238
-0.00123989
-0.00197572
0.130214
0.134812
1.47004e-05
0.134152
0.00034214
0.134116
-0.00120414
-0.00411568
0.136256
0.133644
-0.00145796
0.13441
-0.000423681
0.13829
-0.00508398
-0.00495111
0.139125
0.114158
-0.00770772
0.0910143
0.0227196
0.0911442
-0.00521385
0.096496
-0.0103029
0.131855
-0.00164087
0.132676
-0.000821066
0.132259
0.000416816
0.131201
0.00105826
0.12993
0.00127073
0.128189
0.0017415
0.126899
0.00128902
0.125239
0.00166019
0.124104
0.00113547
0.123405
0.000699298
0.123099
0.000305411
0.122905
0.000194407
0.122674
0.000230783
0.123063
-0.000388659
0.122786
0.000276159
0.122047
0.000739512
0.119714
0.00233275
0.116379
0.00333556
0.112509
0.00386943
0.108686
0.0038234
0.106337
0.00234901
0.10482
0.00151687
0.10526
-0.000440266
0.106918
-0.00165758
0.109644
-0.00272579
0.113083
-0.00343939
0.115451
-0.00236763
0.117698
-0.00224791
0.1178
-0.000101367
0.116586
0.00121338
0.113001
0.00358533
0.107886
0.00511543
0.103271
0.00461516
0.0986937
0.00457681
0.0973699
0.00132383
0.0961452
0.00122465
0.0981009
-0.00195567
0.10001
-0.00190864
0.102869
-0.00285969
-0.00323895
0.137418
-0.00280247
0.137513
-0.000916535
0.137833
9.70964e-05
0.137566
0.00132552
0.136638
0.00219882
0.135251
0.00312819
0.133902
0.00263855
0.132802
0.00275954
0.132039
0.00189881
0.131161
0.00157724
0.130494
0.000972096
0.130759
-7.01383e-05
0.131737
-0.000747047
0.133065
-0.00171668
0.133551
-0.000210533
0.133282
0.00100866
0.131828
0.00378737
0.129521
0.00564212
0.126503
0.00688763
0.123199
0.00712716
0.120287
0.00526129
0.118532
0.0032715
0.118459
-0.000367631
0.120125
-0.00332325
0.122669
-0.00526946
0.125805
-0.00657577
0.128515
-0.00507737
0.131435
-0.00516798
0.133112
-0.00177798
0.133388
0.00093684
0.131899
0.00507416
0.128599
0.00841558
0.125205
0.00800903
0.120597
0.00918491
0.117496
0.00442494
0.116334
0.00238671
0.116759
-0.00238069
0.118272
-0.00342166
0.120959
-0.00554656
-0.00553522
0.135543
0.000779538
0.133786
0.000840844
0.135346
-0.00146289
0.136229
0.000442855
0.135027
0.00340007
0.135402
0.00275397
0.135071
0.00296896
0.134166
0.00366434
0.132118
0.00394706
0.130732
0.00296341
0.129721
0.00198303
0.129602
4.83956e-05
0.13057
-0.00171472
0.131088
-0.00223442
0.132821
-0.00194341
0.134621
-0.000791083
0.135475
0.00293335
0.13437
0.00674701
0.132022
0.00923546
0.129952
0.00919668
0.127439
0.00777465
0.125929
0.00478107
0.12364
0.00192159
0.12178
-0.00146272
0.120636
-0.00412572
0.119994
-0.00593399
0.121762
-0.00684523
0.124424
-0.00783031
0.128991
-0.00634424
0.133418
-0.00349077
0.135959
0.00253308
0.135959
0.00841546
0.133383
0.0105852
0.131722
0.0108465
0.130719
0.00542771
0.130539
0.00256683
0.129971
-0.00181304
0.127929
-0.00137958
0.124718
-0.00233523
-0.00318497
0.0956948
0.00158075
0.0920163
0.0045193
0.0976578
-0.00710435
0.097894
0.000206633
0.0951156
0.00617846
0.0997115
-0.00184187
0.100327
0.00235365
0.09739
0.00660109
0.095866
0.00547108
0.0930332
0.00579625
0.0904811
0.0045351
0.0881039
0.00242563
0.0861548
0.000234336
0.0863284
-0.00240799
0.0897376
-0.00535259
0.0949796
-0.00603315
0.100582
-0.00266878
0.10618
0.00114908
0.110833
0.00458202
0.110448
0.00958189
0.105571
0.0126521
0.0972608
0.0130908
0.0870625
0.0121199
0.0769877
0.00861203
0.0706759
0.00218613
0.0689303
-0.00418844
0.0718351
-0.00975001
0.0781182
-0.0141134
0.0867787
-0.0150048
0.0958555
-0.0125675
0.106068
-0.00767941
0.114895
-0.000411551
0.119973
0.00550707
0.120009
0.0108103
0.112449
0.0129879
0.0982995
0.0167165
0.0815318
0.0149546
0.0680095
0.0121428
0.0600607
0.00561359
-0.00224129
0.110425
-0.000380836
0.088334
4.78315e-05
0.0887176
-0.000880383
-0.000373206
0.109826
-0.0102063
0.0882145
0.0216589
0.0873472
-1.31439e-05
0.086974
-0.00110485
-0.00660287
-0.0152187
0.0368334
-0.0161463
-0.00428626
-0.0418235
0.0153743
-0.00398686
-0.00261601
0.0181908
0.0146557
0.0204516
-0.00654706
-0.0175497
-0.00382223
-0.00165279
0.0186079
0.00145172
0.0014148
0.0057532
-0.0114058
0.00802386
-0.00206403
0.000335928
0.0138664
-0.00415113
0.00264519
0.00546597
-0.00726346
0.0113023
0.00076478
0.00882303
0.00795034
0.00611553
0.00850375
0.00697389
0.00367674
0.00975735
-0.000357823
0.0141711
-0.00417941
0.0181048
-0.00634167
0.0221514
-0.00939917
0.0270905
-0.0109723
0.0318855
-0.00746379
0.0350689
-0.00203427
0.0369464
0.00270453
0.0371213
0.00940695
0.0357291
0.0140443
0.0337871
0.0150328
0.0328707
0.0130363
0.0330107
0.00847204
0.0339775
0.00121934
0.0358634
-0.00607437
0.0381384
-0.012025
0.0414989
-0.0174739
0.0467296
-0.0202354
0.0523835
-0.0182214
0.056755
-0.0120509
0.0590837
-0.00274032
0.0594355
0.00515524
0.0558972
0.0143487
0.0504527
0.0184323
0.0454957
0.0216735
0.0417135
0.0187368
0.0402478
0.0136085
0.0397318
0.00612957
-0.00227238
-0.00828791
0.00934611
0.000965905
-0.00783902
-0.0101537
-0.000286181
-0.0107131
-0.00150466
0.00150892
0.00164436
0.00506442
-0.000910307
0.00291818
-0.00511721
0.00448047
-0.000797515
0.00879929
0.00363152
0.0158542
0.00144885
0.0202441
-0.000713159
0.0219379
-0.0020516
0.0218392
-0.0040807
0.0227522
-0.00725471
0.0228649
-0.00951191
0.0220081
-0.0101155
0.0233026
-0.00875823
0.025953
-0.00468469
0.0281986
0.000458946
0.032398
0.00520751
0.0383553
0.00808707
0.0439293
0.00945872
0.0494313
0.00753432
0.0546791
0.00322419
0.0578591
-0.0019606
0.0583435
-0.00655877
0.0563028
-0.00998436
0.0516228
-0.0127939
0.0464998
-0.0151124
0.0433409
-0.0150625
0.0423888
-0.0110988
0.0419388
-0.00229039
0.0433644
0.00372965
0.0457107
0.0120023
0.0487045
0.0154386
0.0533032
0.0170747
0.0590557
0.0129844
0.0643057
0.00835844
0.0674532
0.00298206
-0.00368574
0.102595
-0.0128012
0.0943034
0.0299503
0.0982425
-0.00395222
0.0391722
0.146044
0.0958508
-0.00865193
0.107785
0.0180161
0.103657
0.000175907
0.0192663
0.123563
0.0951577
-0.00380963
0.10578
0.00739399
0.102843
0.00311259
0.00973806
0.112371
0.0961904
0.103584
0.106697
0.116435
0.154373
-0.00832888
0.0450432
0.10933
0.124548
-0.0093142
0.0416191
0.127972
0.108433
-0.00537543
0.0163844
0.133667
0.11106
0.127444
0.103834
0.00287949
0.112527
0.00596322
0.105536
0.000444113
0.00238236
0.0993312
0.13157
-0.000718455
0.136588
0.000945622
0.134097
0.00293516
0.00234345
0.134136
0.133231
-0.000281816
0.133714
0.000462042
0.134955
0.00169488
0.00135597
0.135942
0.127162
0.127624
0.129319
0.130675
0.10712
0.00155721
0.100226
-0.000945353
0.0996975
0.000242765
0.0990332
-0.000840311
0.10114
-0.000462505
0.100578
-0.000348073
0.0972116
-0.00175101
0.0981128
-0.00169869
0.101867
-0.000122803
0.103405
-8.92965e-05
0.105566
-0.00287385
0.108773
-0.00525907
0.11155
-0.00685723
0.111781
-0.0074857
0.108423
-0.00615435
0.102807
-0.00449882
0.095729
-0.00168055
0.0903564
0.000687867
0.0867188
0.00409659
0.086189
0.00573726
0.0889672
0.00530886
0.0947209
0.00370504
0.101967
0.00028783
0.10959
-0.0043985
0.116269
-0.00863954
0.122388
-0.0126779
0.124897
-0.012493
0.122577
-0.0104745
0.112644
-0.00517854
0.0983659
-0.000784785
0.0841496
0.00311752
0.073713
0.0081462
0.0700764
0.00736626
0.0699203
0.0121584
0.076356
0.00900297
0.082812
0.0106187
0.0906102
0.00518618
0.098639
0.00032959
0.105994
-0.00437258
-0.008935
0.133551
0.00214212
0.132608
-2.6733e-06
0.133373
-0.000522553
0.133589
-0.00105596
0.134569
-0.00144309
0.134302
-8.06266e-05
0.132873
-0.000322013
0.131708
-0.000533517
0.133343
-0.00175815
0.1344
-0.00114649
0.133852
-0.00232536
0.132146
-0.00355354
0.129598
-0.00430926
0.127285
-0.00517182
0.125177
-0.00404682
0.124203
-0.00352507
0.12273
-0.000207606
0.121883
0.00153475
0.122723
0.00325738
0.124561
0.00389934
0.127172
0.00269747
0.129982
0.000895201
0.133005
-0.00273559
0.133913
-0.00530599
0.132184
-0.00691053
0.128239
-0.00873337
0.123278
-0.00753224
0.119756
-0.00695229
0.116365
-0.00178751
0.113715
0.00186554
0.111142
0.00569023
0.110152
0.00913621
0.109582
0.00793595
0.111855
0.00988625
0.114743
0.00611451
0.119995
0.00536616
0.12499
0.000191237
0.128765
-0.0034448
0.13206
-0.00766757
-0.00845894
0.136894
0.00119032
0.136677
0.000213864
0.136593
-0.000438307
0.136383
-0.000845471
0.135988
-0.00104898
0.136191
-0.000282821
0.13618
-0.000311787
0.135677
-3.04703e-05
0.135052
-0.00113322
0.134878
-0.000971835
0.13402
-0.00146765
0.132539
-0.00207281
0.130523
-0.00229292
0.128035
-0.00268363
0.125853
-0.00186539
0.124111
-0.00178289
0.124086
-0.000182827
0.124877
0.000744085
0.126587
0.00154756
0.128709
0.00177684
0.130773
0.000634134
0.131724
-5.59736e-05
0.130984
-0.00199572
0.128906
-0.00322816
0.126157
-0.00416117
0.122187
-0.00476334
0.118251
-0.00359591
0.114489
-0.00319055
0.112761
-6.01076e-05
0.113263
0.00136439
0.115218
0.00373501
0.11933
0.00502392
0.122765
0.00450142
0.127501
0.0051501
0.130789
0.00282621
0.134209
0.00194605
0.135783
-0.00138301
0.134904
-0.00256583
0.132837
-0.00559972
-0.00561589
0.131865
0.132079
0.131641
0.130795
0.129746
0.129464
0.129152
0.129121
0.127988
0.127016
0.125549
0.123476
0.121183
0.118499
0.116634
0.114851
0.114668
0.115412
0.11696
0.118737
0.119371
0.119315
0.117319
0.114091
0.10993
0.105166
0.101571
0.09838
0.0983199
0.0996843
0.103419
0.108443
0.112945
0.118095
0.120921
0.122867
0.121484
0.118918
0.113318
)
;

boundaryField
{
    inlet
    {
        type            calculated;
        value           nonuniform List<scalar> 10(-0.1 -0.1 -0.1 -0.1 -0.1 -0.1 -0.1 -0.1 -0.1 -0.1);
    }
    outlet
    {
        type            calculated;
        value           nonuniform List<scalar> 10(0.106108 0.123255 0.122367 0.059117 0.0397629 0.0688666 0.111243 0.131584 0.129993 0.107703);
    }
    obstacle
    {
        type            calculated;
        value           uniform 0;
    }
    upperWall
    {
        type            calculated;
        value           uniform 0;
    }
    lowerWall
    {
        type            calculated;
        value           uniform 0;
    }
    frontAndBack
    {
        type            empty;
        value           nonuniform List<scalar> 0();
    }
}


// ************************************************************************* //
