/*--------------------------------*- C++ -*----------------------------------*\
  =========                 |
  \\      /  F ield         | OpenFOAM: The Open Source CFD Toolbox
   \\    /   O peration     | Website:  https://openfoam.org
    \\  /    A nd           | Version:  10
     \\/     M anipulation  |
\*---------------------------------------------------------------------------*/
FoamFile
{
    format      ascii;
    class       volVectorField;
    location    "9";
    object      U;
}
// * * * * * * * * * * * * * * * * * * * * * * * * * * * * * * * * * * * * * //

dimensions      [0 1 -1 0 0 0 0];

internalField   nonuniform List<vector> 
496
(
(9.96539 0.0597144 0)
(9.968 -0.141185 0)
(10.2031 -0.144419 0)
(10.7949 -0.201758 0)
(10.0478 0.459973 0)
(9.82175 -1.19373 0)
(10.2449 -0.372988 0)
(10.8608 -1.09074 0)
(10.8259 1.3487 0)
(9.07574 -2.94708 0)
(11.2445 -0.199407 0)
(10.7316 -4.08199 0)
(12.0525 1.59628 0)
(8.21322 -2.7095 0)
(12.7321 0.864443 0)
(10.4046 -6.67862 0)
(11.4382 -0.227851 3.17381e-18)
(12.1892 -0.194146 -5.76455e-19)
(11.6399 -0.437853 -5.27785e-19)
(12.5153 0.189477 1.79952e-18)
(13.111 -2.13927 -2.64988e-18)
(13.123 -0.397956 -1.22254e-18)
(13.038 -5.34204 -3.60148e-17)
(15.9167 -4.5194 6.50734e-17)
(12.7057 -0.175206 0)
(13.0218 -0.178053 0)
(13.1444 -0.0596801 0)
(13.1858 0.0258904 0)
(13.0749 0.16774 0)
(13.4889 -0.232107 0)
(13.7491 -0.561646 0)
(13.8255 -0.748067 0)
(12.7568 0.819723 0)
(12.6054 1.18636 0)
(13.0715 0.871241 0)
(13.2365 0.352177 0)
(10.7066 -2.64059 0)
(10.2826 -1.7939 0)
(8.35441 -1.6534 0)
(8.40943 -0.521485 0)
(13.2187 0.147576 0)
(13.2202 0.237566 0)
(13.2562 0.341457 0)
(13.1776 0.387478 0)
(13.1329 0.407995 0)
(12.9479 0.41516 0)
(12.8351 0.364484 0)
(12.6167 0.356716 0)
(12.5485 0.312683 0)
(12.3795 0.267197 0)
(12.314 0.207563 0)
(12.222 0.170105 0)
(12.2605 0.169106 0)
(12.2839 0.138034 0)
(12.3506 0.180411 0)
(12.2999 0.195711 0)
(12.1568 0.247963 0)
(11.7716 0.26305 0)
(11.4452 0.322519 0)
(10.9991 0.371608 0)
(10.7721 0.352499 0)
(10.4767 0.306046 0)
(10.5136 0.187441 0)
(10.5491 0.103795 0)
(10.8243 0.0315225 0)
(11.0616 -0.00137724 0)
(11.4393 0.0582345 0)
(11.6567 0.0754213 0)
(11.9156 0.188544 0)
(11.7248 0.248199 0)
(11.6224 0.331063 0)
(10.9174 0.431173 0)
(10.6729 0.467348 0)
(9.94705 0.554778 0)
(9.86232 0.387008 0)
(9.62061 0.337176 0)
(9.64259 0.0574995 0)
(9.97399 0.0176675 0)
(9.978 -0.170642 0)
(10.6067 -0.148237 0)
(13.8944 -0.692211 0)
(13.9167 -0.514937 0)
(13.9317 -0.325238 0)
(13.8241 -0.15432 0)
(13.7645 -0.0815312 0)
(13.5798 0.0303064 0)
(13.4744 -0.032584 0)
(13.3289 0.0205893 0)
(13.2436 -0.0504509 0)
(13.118 -0.0907109 0)
(13.075 -0.135961 0)
(13.0756 -0.142396 0)
(13.1247 -0.135754 0)
(13.219 -0.203737 0)
(13.3513 -0.0659074 0)
(13.3974 0.0300827 0)
(13.314 0.262038 0)
(13.0604 0.372543 0)
(12.8196 0.362672 0)
(12.4431 0.292919 0)
(12.1771 0.0411537 0)
(11.8624 -0.040959 0)
(11.8673 -0.274427 0)
(11.8549 -0.41327 0)
(12.1538 -0.551717 0)
(12.3193 -0.662179 0)
(12.7564 -0.512056 0)
(12.935 -0.498296 0)
(13.37 -0.139751 0)
(13.3205 0.0599964 0)
(13.3846 0.413696 0)
(12.9818 0.543512 0)
(12.7433 0.344308 0)
(12.2716 0.22482 0)
(11.871 -0.202319 0)
(11.7064 -0.132356 0)
(11.5376 -0.388769 0)
(11.824 -0.315757 0)
(11.8276 -0.387638 0)
(12.3165 -0.515629 0)
(13.6581 0.211362 0)
(13.9079 0.22074 0)
(13.8802 0.253222 0)
(13.8086 0.275817 0)
(13.7154 0.40486 0)
(13.5841 0.511503 0)
(13.4713 0.541394 0)
(13.3111 0.591887 0)
(13.3078 0.481879 0)
(13.0601 0.391753 0)
(13.2225 0.283038 0)
(12.9295 0.073613 0)
(13.0183 -0.0715741 0)
(12.9054 -0.196133 0)
(13.2523 -0.0560064 0)
(13.3562 0.12959 0)
(13.611 0.511892 0)
(13.5401 0.885236 0)
(13.346 1.21368 0)
(13.0611 1.34335 0)
(12.812 1.13161 0)
(12.6949 0.691821 0)
(12.5157 0.0654349 0)
(12.2259 -0.433788 0)
(12.1081 -0.618781 0)
(11.9056 -0.764802 0)
(12.1171 -0.614672 0)
(12.2013 -0.645926 0)
(12.6587 -0.274384 0)
(13.1841 0.0884093 0)
(13.507 0.60629 0)
(13.8344 1.29328 0)
(13.3058 1.50219 0)
(13.4209 1.80981 0)
(12.8725 1.13595 0)
(13.2406 0.551844 0)
(12.9017 -0.347981 0)
(12.9781 -0.598359 0)
(12.7304 -0.702913 0)
(12.2064 -0.531791 0)
(8.8814 0.170452 0)
(9.81515 0.0094928 0)
(9.80559 -0.366687 0)
(9.1991 -0.0744122 0)
(10.2425 0.0420421 0)
(9.74479 -0.193168 0)
(9.84236 0.109945 0)
(9.73837 0.207711 0)
(9.73865 0.272869 0)
(9.67892 0.262393 0)
(9.31686 0.263344 0)
(8.9154 0.116593 0)
(8.3837 -0.0025877 0)
(8.56332 -0.132942 0)
(8.80997 -0.324755 0)
(9.12541 -0.343197 0)
(9.90221 -0.215672 0)
(10.2682 0.0521219 0)
(11.098 0.317789 0)
(10.9968 0.453838 0)
(11.1 0.562648 0)
(10.2055 0.545369 0)
(9.10858 0.584887 0)
(8.17196 0.526395 0)
(7.12167 0.244928 0)
(7.02184 -0.157668 0)
(6.86553 -0.63474 0)
(7.40077 -0.957859 0)
(8.21025 -1.07514 0)
(9.11248 -0.855125 0)
(10.1497 -0.450462 0)
(11.2306 0.0271877 0)
(11.6204 0.317124 0)
(12.584 0.351045 0)
(11.4397 0.115727 0)
(11.0519 0.237965 0)
(8.45648 0.407758 0)
(7.71997 0.635535 0)
(5.96742 0.537421 0)
(5.90359 -0.0789854 0)
(12.2427 0.553073 -1.08789e-17)
(7.95683 -0.829452 -1.82259e-17)
(11.6105 -0.097543 3.1978e-17)
(4.84155 -4.7037 -8.55611e-17)
(11.9814 -0.647595 1.09637e-17)
(8.2323 0.871146 1.83887e-17)
(11.1505 -0.123478 -3.22483e-17)
(5.20527 4.66614 8.65747e-17)
(-8.51218 2.08939 0)
(10.2017 5.06559 0)
(-10.643 -0.088546 0)
(4.88795 -3.35577 0)
(3.11427 -3.75205 3.02215e-17)
(-3.91978 2.24481 0)
(7.90612 -1.22409 0)
(-2.47085 -2.46192 0)
(-0.359427 -0.0712728 0)
(0.219504 1.36658 0)
(-0.217043 -1.35538 0)
(0.957885 -0.0463827 0)
(1.25057 1.61641 0)
(-1.13462 0.0795574 0)
(-0.139478 0.10635 0)
(1.60165 0.733983 0)
(0.845845 0.889669 0)
(0.669576 1.05859 0)
(0.695423 0.638373 0)
(0.66701 0.205064 0)
(1.17334 -0.0965978 0)
(1.76118 -0.305513 0)
(1.87027 -0.586248 0)
(2.42113 -0.727483 0)
(3.01802 -0.306334 0)
(3.48147 0.164797 0)
(3.43572 0.481729 0)
(3.91912 1.11899 0)
(3.74037 1.5269 0)
(3.33962 1.493 0)
(3.26592 1.21061 0)
(3.25229 0.75105 0)
(3.36371 -0.0229967 0)
(3.51525 -0.802282 0)
(3.6415 -1.31609 0)
(3.88933 -1.8246 0)
(4.39585 -1.93969 0)
(5.01383 -1.62964 0)
(5.4618 -1.0852 0)
(5.85735 -0.301673 0)
(6.0068 0.516872 0)
(6.01619 1.38782 0)
(5.08244 1.74769 0)
(4.98901 2.09008 0)
(4.18327 1.72196 0)
(3.96618 1.19996 0)
(4.02735 0.331948 0)
(3.99543 -0.465927 0)
(-2.79319 2.52554 0)
(2.21132 -1.38028 0)
(-2.13172 -0.569238 0)
(-0.518413 -0.295778 0)
(-1.03982 0.458557 0)
(1.1248 0.0680801 0)
(0.051542 -1.14086 0)
(0.809819 -0.363679 0)
(-0.158039 0.534353 0)
(1.54325 0.218312 0)
(1.96909 -0.108268 0)
(2.19876 -0.422626 0)
(2.02212 -0.721094 0)
(2.30737 -1.01389 0)
(2.40053 -1.23728 0)
(2.14587 -1.28077 0)
(2.13204 -1.00455 0)
(2.68214 -0.45076 0)
(2.44806 0.31447 0)
(2.94024 0.860082 0)
(3.70812 1.13552 0)
(3.99336 1.30781 0)
(4.61954 1.14208 0)
(5.31762 0.675176 0)
(5.72198 0.101267 0)
(5.93902 -0.499583 0)
(5.74566 -1.03149 0)
(5.50036 -1.47454 0)
(4.78657 -1.80611 0)
(4.53277 -1.70683 0)
(4.15479 -1.07107 0)
(4.20398 -0.0854079 0)
(4.18354 0.850348 0)
(4.4791 1.60188 0)
(4.77045 2.07758 0)
(4.84009 2.19048 0)
(5.86103 1.82375 0)
(5.99166 1.33432 0)
(6.79574 0.754516 0)
(6.92795 -0.0139 0)
(12.4134 -1.51649 0)
(7.74739 2.52431 0)
(13.3842 -0.707752 0)
(9.60291 6.39759 0)
(10.9484 -1.37339 0)
(8.92475 2.88767 0)
(11.2951 0.0900514 0)
(10.5217 4.03498 0)
(10.1007 -0.500826 0)
(9.77614 1.27069 0)
(10.2818 0.331074 0)
(10.7827 1.16866 0)
(9.96046 -0.088327 0)
(9.94087 0.209707 0)
(10.2044 0.102949 0)
(10.7729 0.236112 0)
(13.7914 5.40262 3.16846e-17)
(14.8992 4.35538 -6.13248e-17)
(12.9609 1.98912 0)
(12.8246 0.533206 0)
(11.6592 0.457599 0)
(12.4205 -0.0974573 0)
(11.4588 0.205236 0)
(12.1655 0.183367 0)
(12.1006 2.80657 0)
(10.3766 2.13033 0)
(8.75666 0.669308 0)
(11.4058 1.20471 0)
(12.4417 -0.966758 0)
(12.5048 -0.733189 0)
(12.9549 -0.487859 0)
(13.3541 -0.466366 0)
(13.0338 -0.0685717 0)
(13.4263 0.273779 0)
(13.7005 0.555836 0)
(13.8257 0.569619 0)
(12.7262 0.179431 0)
(13.0341 0.125085 0)
(13.2109 0.0932863 0)
(13.2482 -0.0530342 0)
(9.65964 0.450367 0)
(10.5583 0.244298 0)
(10.2743 0.488283 0)
(10.2889 0.171987 0)
(9.86179 0.143125 0)
(9.59336 0.0317026 0)
(9.87669 -0.0457854 0)
(10.2377 0.0439614 0)
(9.9865 0.289626 0)
(9.86501 0.24007 0)
(10.5386 0.101977 0)
(10.7845 -0.0149457 0)
(11.1167 -0.126072 0)
(11.3199 -0.271616 0)
(10.9729 -0.358603 0)
(10.7798 -0.331915 0)
(9.63323 -0.30541 0)
(9.45811 -0.238527 0)
(8.59395 0.0133111 0)
(8.5793 0.370853 0)
(8.65807 0.580055 0)
(9.17092 0.609872 0)
(9.83528 0.457818 0)
(10.549 0.0596402 0)
(11.3689 -0.312166 0)
(11.9907 -0.649857 0)
(12.5595 -0.743192 0)
(12.468 -0.69304 0)
(12.0865 -0.591419 0)
(10.3635 -0.601763 0)
(9.30914 -0.645988 0)
(7.3389 -0.185665 0)
(7.40692 0.233923 0)
(6.54937 1.03101 0)
(7.44473 1.07209 0)
(7.90983 1.39367 0)
(8.53771 0.89565 0)
(9.78544 0.437491 0)
(9.97544 -0.0583787 0)
(11.1508 -0.672151 0)
(13.5705 -0.376093 0)
(13.6663 -0.46995 0)
(13.6766 -0.469835 0)
(13.4465 -0.461244 0)
(13.499 -0.41756 0)
(13.216 -0.255844 0)
(13.3219 -0.288445 0)
(13.3026 -0.308066 0)
(13.3761 -0.387316 0)
(13.3302 -0.343043 0)
(13.385 -0.529194 0)
(13.4196 -0.757546 0)
(13.1019 -0.938809 0)
(12.9142 -1.13096 0)
(12.533 -0.98697 0)
(12.5528 -0.819946 0)
(12.2258 -0.265856 0)
(12.214 0.0929227 0)
(12.1478 0.379058 0)
(12.3271 0.460237 0)
(12.5523 0.345225 0)
(12.8781 0.120615 0)
(13.1706 -0.274409 0)
(13.4457 -0.7217 0)
(13.3475 -1.08927 0)
(13.1624 -1.56794 0)
(12.4958 -1.58612 0)
(12.1818 -1.47625 0)
(11.7205 -0.654698 0)
(11.4982 0.169739 0)
(11.2911 0.714207 0)
(10.8938 1.1857 0)
(11.1487 0.867719 0)
(10.6967 1.24935 0)
(11.5915 0.714732 0)
(11.4089 0.725973 0)
(12.5568 0.189185 0)
(12.4859 -0.271952 0)
(13.2711 -0.728767 0)
(13.1671 -1.07724 0)
(13.9004 0.570467 0)
(13.8831 0.420183 0)
(13.86 0.326898 0)
(13.7287 0.291691 0)
(13.6721 0.235185 0)
(13.5387 0.286605 0)
(13.5296 0.265184 0)
(13.5206 0.287437 0)
(13.6173 0.162322 0)
(13.5266 0.176202 0)
(13.5077 0.0861301 0)
(13.3344 0.00283347 0)
(13.1968 -0.0200294 0)
(12.9147 0.00191694 0)
(12.7203 0.151112 0)
(12.4694 0.160814 0)
(12.3946 0.295091 0)
(12.3738 0.393634 0)
(12.5444 0.46424 0)
(12.7186 0.487556 0)
(12.9827 0.320499 0)
(13.1403 0.155707 0)
(13.1877 -0.1401 0)
(13.0682 -0.32234 0)
(12.7724 -0.375135 0)
(12.4927 -0.351376 0)
(11.9419 -0.109435 0)
(11.669 -0.0205437 0)
(11.2084 0.291082 0)
(11.3333 0.437636 0)
(11.3574 0.714964 0)
(11.6948 0.882489 0)
(12.1399 0.869978 0)
(12.3856 0.894863 0)
(13.0176 0.642265 0)
(13.1706 0.465655 0)
(13.6919 0.00445942 0)
(13.492 -0.206374 0)
(13.5779 -0.690405 0)
(12.9923 -0.604581 0)
(13.2931 -0.133085 0)
(13.2659 -0.262039 0)
(13.2583 -0.339824 0)
(13.1663 -0.379899 0)
(13.1093 -0.41836 0)
(13.013 -0.377186 0)
(12.9576 -0.375236 0)
(12.8547 -0.319122 0)
(12.875 -0.40187 0)
(12.7703 -0.399373 0)
(12.7217 -0.432463 0)
(12.4657 -0.459016 0)
(12.3129 -0.468406 0)
(11.9223 -0.516618 0)
(11.7572 -0.479169 0)
(11.4929 -0.502901 0)
(11.5294 -0.365592 0)
(11.4334 -0.301415 0)
(11.6318 -0.220446 0)
(11.7121 -0.185204 0)
(11.9446 -0.217765 0)
(11.9019 -0.24383 0)
(11.9253 -0.357439 0)
(11.6068 -0.397991 0)
(11.3148 -0.469084 0)
(10.7116 -0.556168 0)
(10.3118 -0.535613 0)
(9.90093 -0.543787 0)
(9.75308 -0.314529 0)
(9.91262 -0.214485 0)
(10.0817 -0.0282409 0)
(10.6564 0.0881548 0)
(10.9705 0.0496639 0)
(11.5945 0.120681 0)
(11.9433 -0.0797722 0)
(12.2322 -0.0722078 0)
(12.396 -0.306064 0)
(11.9288 -0.350023 0)
(11.8658 -0.477888 0)
(10.7703 -0.536363 0)
)
;

boundaryField
{
    inlet
    {
        type            fixedValue;
        value           uniform (10 0 0);
    }
    outlet
    {
        type            zeroGradient;
    }
    obstacle
    {
        type            noSlip;
    }
    upperWall
    {
        type            noSlip;
    }
    lowerWall
    {
        type            noSlip;
    }
    frontAndBack
    {
        type            empty;
    }
}


// ************************************************************************* //
