/*--------------------------------*- C++ -*----------------------------------*\
  =========                 |
  \\      /  F ield         | OpenFOAM: The Open Source CFD Toolbox
   \\    /   O peration     | Website:  https://openfoam.org
    \\  /    A nd           | Version:  10
     \\/     M anipulation  |
\*---------------------------------------------------------------------------*/
FoamFile
{
    format      ascii;
    class       surfaceScalarField;
    location    "7.175";
    object      phi;
}
// * * * * * * * * * * * * * * * * * * * * * * * * * * * * * * * * * * * * * //

dimensions      [0 3 -1 0 0 0 0];

internalField   nonuniform List<scalar> 
22800
(
-2.66648e-06
3.28719e-06
-6.20714e-07
-8.46762e-06
6.01634e-06
-2.15192e-07
-1.53526e-05
6.89766e-06
-1.26529e-08
-2.26664e-05
7.20336e-06
1.10399e-07
-3.0133e-05
7.35503e-06
1.11631e-07
-3.7628e-05
7.4687e-06
2.62993e-08
-4.5046e-05
7.52883e-06
-1.10919e-07
-5.22092e-05
7.48265e-06
-3.19379e-07
-5.88527e-05
7.25943e-06
-6.15921e-07
-6.46131e-05
6.77682e-06
-1.01645e-06
-6.90219e-05
5.94641e-06
-1.53764e-06
-7.15166e-05
4.68573e-06
-2.19105e-06
-7.14811e-05
2.94013e-06
-2.97561e-06
-6.83267e-05
7.15515e-07
-3.86985e-06
-6.15857e-05
-1.93145e-06
-4.80961e-06
-5.11672e-05
-4.74202e-06
-5.67642e-06
-3.75851e-05
-7.30591e-06
-6.27623e-06
-2.22585e-05
-8.95206e-06
-6.37454e-06
-7.74335e-06
-8.73913e-06
-5.77603e-06
-4.46106e-06
-3.28229e-06
-5.24586e-06
1.0299e-05
-1.76598e-06
-1.50641e-05
1.73953e-05
-1.56078e-06
-2.64751e-05
1.96983e-05
-1.38957e-06
-3.84651e-05
2.04296e-05
-1.23633e-06
-5.0587e-05
2.0656e-05
-1.17901e-06
-6.26018e-05
2.06791e-05
-1.19562e-06
-7.42869e-05
2.04933e-05
-1.27936e-06
-8.53466e-05
1.99846e-05
-1.44227e-06
-9.5375e-05
1.89929e-05
-1.70505e-06
-0.000103835
1.73293e-05
-2.09263e-06
-0.000110049
1.47906e-05
-2.63033e-06
-0.000113205
1.1179e-05
-3.33727e-06
-0.000112458
6.40853e-06
-4.21558e-06
-0.000107021
5.36419e-07
-5.25744e-06
-9.62099e-05
-6.39867e-06
-6.34385e-06
-7.99284e-05
-1.36788e-05
-7.34474e-06
-5.89369e-05
-2.02798e-05
-8.01761e-06
-3.53021e-05
-2.45322e-05
-8.05476e-06
-1.28085e-05
-2.40596e-05
-7.17305e-06
-1.35518e-05
-3.71773e-06
-6.12974e-06
1.88235e-05
-2.39473e-06
-1.74389e-05
3.10359e-05
-2.33139e-06
-3.04859e-05
3.49344e-05
-2.1891e-06
-4.41263e-05
3.60769e-05
-2.00677e-06
-5.78736e-05
3.63099e-05
-1.90667e-06
-7.14745e-05
3.61538e-05
-1.87391e-06
-8.46956e-05
3.56207e-05
-1.90618e-06
-9.72314e-05
3.45426e-05
-2.02224e-06
-0.000108659
3.2671e-05
-2.25077e-06
-0.000118408
2.97049e-05
-2.62653e-06
-0.000125747
2.53153e-05
-3.18573e-06
-0.000129796
1.91881e-05
-3.95973e-06
-0.000129526
1.11079e-05
-4.96975e-06
-0.000123884
1.08813e-06
-6.19339e-06
-0.00011201
-1.07475e-05
-7.52494e-06
-9.35881e-05
-2.33084e-05
-8.7927e-06
-6.93257e-05
-3.48644e-05
-9.67776e-06
-4.15944e-05
-4.24948e-05
-9.7687e-06
-1.4998e-05
-4.1974e-05
-8.68207e-06
-2.41725e-05
-4.37729e-06
-6.34621e-06
2.80377e-05
-2.86796e-06
-1.81711e-05
4.58004e-05
-2.93966e-06
-3.18033e-05
5.13959e-05
-2.82929e-06
-4.60652e-05
5.29706e-05
-2.63179e-06
-6.04845e-05
5.32367e-05
-2.50749e-06
-7.48413e-05
5.29576e-05
-2.447e-06
-8.89417e-05
5.21748e-05
-2.45376e-06
-0.000102521
5.06759e-05
-2.55397e-06
-0.000115193
4.8128e-05
-2.78548e-06
-0.000126401
4.41095e-05
-3.19588e-06
-0.000135385
3.81374e-05
-3.83808e-06
-0.000141153
2.9719e-05
-4.76314e-06
-0.000142491
1.84565e-05
-6.0108e-06
-0.000138045
4.23891e-06
-7.5967e-06
-0.000126504
-1.28845e-05
-9.40387e-06
-0.000107026
-3.16043e-05
-1.11825e-05
-8.00474e-05
-4.93379e-05
-1.25047e-05
-4.81896e-05
-6.15844e-05
-1.27682e-05
-1.71572e-05
-6.15928e-05
-1.14136e-05
-3.55384e-05
-5.79129e-06
-6.30458e-06
3.75831e-05
-3.24084e-06
-1.82939e-05
6.12203e-05
-3.43054e-06
-3.21707e-05
6.86235e-05
-3.35078e-06
-4.67494e-05
7.07011e-05
-3.15177e-06
-6.15911e-05
7.11021e-05
-3.02377e-06
-7.65337e-05
7.08654e-05
-2.96513e-06
-9.14543e-05
7.00808e-05
-2.98536e-06
-0.000106166
6.85072e-05
-3.11941e-06
-0.000120359
6.57377e-05
-3.41727e-06
-0.000133532
6.12273e-05
-3.94408e-06
-0.000144923
5.43064e-05
-4.77854e-06
-0.000153432
4.42327e-05
-6.00413e-06
-0.000157584
3.03018e-05
-7.69407e-06
-0.000155534
1.2078e-05
-9.88832e-06
-0.000145373
-1.0518e-05
-1.25282e-05
-0.000125344
-3.63954e-05
-1.52373e-05
-9.52521e-05
-6.20147e-05
-1.74155e-05
-5.78381e-05
-8.08793e-05
-1.8119e-05
-2.04023e-05
-8.26489e-05
-1.63796e-05
-4.74947e-05
-8.44605e-06
-6.16244e-06
4.73304e-05
-3.58492e-06
-1.81913e-05
7.71399e-05
-3.8908e-06
-3.22013e-05
8.64769e-05
-3.84341e-06
-4.69995e-05
8.91507e-05
-3.65146e-06
-6.21887e-05
8.98244e-05
-3.53304e-06
-7.76816e-05
8.98545e-05
-3.49618e-06
-9.34531e-05
8.94106e-05
-3.55832e-06
-0.000109432
8.8251e-05
-3.76529e-06
-0.00012543
8.59193e-05
-4.18343e-06
-0.000141061
8.17613e-05
-4.90262e-06
-0.000155627
7.49115e-05
-6.0391e-06
-0.000167969
6.4306e-05
-7.73187e-06
-0.00017633
4.8785e-05
-1.01214e-05
-0.000178277
2.73269e-05
-1.33021e-05
-0.000171117
-2.94747e-07
-1.73836e-05
-0.000151471
-3.43035e-05
-2.17379e-05
-0.000117954
-6.99435e-05
-2.55882e-05
-7.29032e-05
-9.85727e-05
-2.73571e-05
-2.58096e-05
-0.000104576
-2.51661e-05
-6.01485e-05
-1.31558e-05
-5.96043e-06
5.72454e-05
-3.95449e-06
-1.79643e-05
9.35339e-05
-4.3901e-06
-3.20379e-05
0.000104929
-4.37814e-06
-4.69714e-05
0.000108278
-4.19418e-06
-6.24124e-05
0.000109353
-4.08745e-06
-7.8362e-05
0.000109882
-4.07774e-06
-9.49183e-05
0.00011016
-4.19342e-06
-0.000112166
0.000109994
-4.49496e-06
-0.000130104
0.000108928
-5.07097e-06
-0.000148543
0.000106248
-6.04684e-06
-0.000166965
0.000100929
-7.59591e-06
-0.000184296
9.15845e-05
-9.94687e-06
-0.000198628
7.64846e-05
-1.3368e-05
-0.000206962
5.37728e-05
-1.81117e-05
-0.000204987
2.20193e-05
-2.42888e-05
-0.000188126
-1.9383e-05
-3.17823e-05
-0.000151993
-6.70532e-05
-3.90228e-05
-9.71853e-05
-0.000109937
-4.34435e-05
-3.55638e-05
-0.000125062
-4.11364e-05
-7.38256e-05
-2.18867e-05
-5.70464e-06
6.73331e-05
-4.38315e-06
-1.76286e-05
0.00011043
-4.97166e-06
-3.16799e-05
0.000123975
-4.99568e-06
-4.66138e-05
0.000128024
-4.81155e-06
-6.21194e-05
0.000129564
-4.70596e-06
-7.82947e-05
0.00013077
-4.71341e-06
-9.53827e-05
0.000132125
-4.87672e-06
-0.000113664
0.00013355
-5.27535e-06
-0.000133389
0.00013468
-6.02692e-06
-0.000154683
0.000134847
-7.30553e-06
-0.00017737
0.000132984
-9.36743e-06
-0.000200692
0.000127487
-1.25804e-05
-0.000222869
0.000116094
-1.74318e-05
-0.000240513
9.5904e-05
-2.44871e-05
-0.00024817
6.38729e-05
-3.41973e-05
-0.000238649
1.81261e-05
-4.70299e-05
-0.00020337
-4.14429e-05
-6.0889e-05
-0.000138102
-0.000103565
-7.16397e-05
-5.49496e-05
-0.00013727
-7.09441e-05
-8.88906e-05
-3.98847e-05
-5.41208e-06
7.76451e-05
-4.89988e-06
-1.72146e-05
0.000127906
-5.67344e-06
-3.1136e-05
0.000143627
-5.72976e-06
-4.58698e-05
0.000148284
-5.52634e-06
-6.11376e-05
0.000150229
-5.39651e-06
-7.71334e-05
0.000152159
-5.39297e-06
-9.42512e-05
0.000154819
-5.57619e-06
-0.00011299
0.000158338
-6.04879e-06
-0.000133912
0.000162566
-6.96431e-06
-0.000157567
0.00016706
-8.55807e-06
-0.00018433
0.000170944
-1.11971e-05
-0.0002141
0.00017271
-1.54529e-05
-0.000245752
0.000169923
-2.21778e-05
-0.000276296
0.000158951
-3.25034e-05
-0.000299667
0.000134913
-4.76688e-05
-0.000305583
9.2388e-05
-6.83462e-05
-0.000280765
2.7703e-05
-9.3964e-05
-0.000209472
-5.79877e-05
-0.00011687
-9.59491e-05
-0.000129126
-0.000121666
-0.000107792
-7.70478e-05
-5.13854e-06
8.83258e-05
-5.54215e-06
-1.68285e-05
0.000146138
-6.54296e-06
-3.05116e-05
0.000163932
-6.62188e-06
-4.47876e-05
0.000168926
-6.36611e-06
-5.93963e-05
0.000171006
-6.16854e-06
-7.46187e-05
0.000173486
-6.10395e-06
-9.09855e-05
0.000177439
-6.25317e-06
-0.000109199
0.000183295
-6.7433e-06
-0.000130132
0.000191266
-7.76649e-06
-0.000154818
0.000201374
-9.62838e-06
-0.000184369
0.000213326
-1.28314e-05
-0.000219727
0.000226272
-1.82037e-05
-0.00026114
0.000238374
-2.70383e-05
-0.000307255
0.000246267
-4.12e-05
-0.000353593
0.000244108
-6.28572e-05
-0.000389421
0.000221674
-9.34576e-05
-0.000392268
0.000161608
-0.000131058
-0.000330232
4.62465e-05
-0.00016627
-0.00018027
-0.000100942
-0.000178146
-0.000150333
-0.000137729
-5.01e-06
9.97064e-05
-6.37059e-06
-1.67113e-05
0.000165492
-7.65195e-06
-3.00858e-05
0.000185041
-7.7345e-06
-4.36131e-05
0.000189828
-7.37467e-06
-5.70359e-05
0.000191472
-7.04325e-06
-7.07128e-05
0.000194004
-6.84148e-06
-8.52687e-05
0.000198867
-6.87183e-06
-0.00010154
0.000206849
-7.28298e-06
-0.000120625
0.000218649
-8.2993e-06
-0.000143948
0.000234985
-1.02874e-05
-0.000173313
0.000256567
-1.38764e-05
-0.000210912
0.000283941
-2.00704e-05
-0.000259153
0.000317114
-3.04979e-05
-0.000320031
0.000354467
-4.73231e-05
-0.000393544
0.000389809
-7.21881e-05
-0.000472901
0.000404395
-0.000103363
-0.00053251
0.000352946
-0.000131729
-0.000508731
0.000164183
-0.000141715
-0.000325042
-0.000136462
-0.000148169
-0.000298653
-0.000176723
-5.27366e-06
0.000112474
-7.49435e-06
-1.73205e-05
0.00018667
-9.1313e-06
-3.04014e-05
0.000207317
-9.19533e-06
-4.28754e-05
0.000210959
-8.65638e-06
-5.45167e-05
0.000211203
-8.08993e-06
-6.57489e-05
0.000212875
-7.63886e-06
-7.72294e-05
0.000217777
-7.42943e-06
-8.97944e-05
0.000227039
-7.62428e-06
-0.000104561
0.000241879
-8.46307e-06
-0.000123072
0.00026383
-1.03353e-05
-0.000147488
0.000294888
-1.39037e-05
-0.000180918
0.00033745
-2.00789e-05
-0.000227928
0.000394149
-3.00256e-05
-0.000295079
0.000465228
-4.36091e-05
-0.000390798
0.000540933
-5.54051e-05
-0.000519238
0.000581424
-4.85892e-05
-0.000662501
0.000498009
-1.80102e-06
-0.000722297
0.000150192
7.37876e-05
-0.00050306
-0.000424833
6.91338e-05
-0.000698041
-0.000103672
-6.37868e-06
0.000127939
-9.08612e-06
-1.94348e-05
0.000210831
-1.11052e-05
-3.23618e-05
0.000231292
-1.10479e-05
-4.34873e-05
0.000232282
-1.01983e-05
-5.2712e-05
0.000229706
-9.27779e-06
-6.05421e-05
0.000229172
-8.46678e-06
-6.76097e-05
0.000232741
-7.89638e-06
-7.45503e-05
0.000241695
-7.71582e-06
-8.21686e-05
0.000257651
-8.15314e-06
-9.15993e-05
0.000282791
-9.52949e-06
-0.000104667
0.000320289
-1.23333e-05
-0.000124437
0.000373988
-1.67692e-05
-0.00015713
0.000448674
-2.18321e-05
-0.000215324
0.000543703
-2.02812e-05
-0.000326154
0.000644017
7.74523e-06
-0.000526283
0.000679062
0.000102491
-0.000814124
0.000502629
0.000283221
-0.000971411
-0.000137576
0.000445055
-0.000669481
-0.00109146
0.000364694
-0.00139241
2.48891e-05
-9.36001e-06
0.000149014
-1.17151e-05
-2.4584e-05
0.000240458
-1.44033e-05
-3.74786e-05
0.000258475
-1.42887e-05
-4.67308e-05
0.000254507
-1.29724e-05
-5.27945e-05
0.000247157
-1.13874e-05
-5.63678e-05
0.000242614
-9.8689e-06
-5.78809e-05
0.000242878
-8.62393e-06
-5.75852e-05
0.000249229
-7.82984e-06
-5.56541e-05
0.000263366
-7.64583e-06
-5.2234e-05
0.000287596
-8.22549e-06
-4.80764e-05
0.000325792
-9.66003e-06
-4.55124e-05
0.000382177
-1.07527e-05
-5.31643e-05
0.000463194
-6.86784e-06
-9.41649e-05
0.000565831
1.88727e-05
-0.000228417
0.000673689
0.00010458
-0.000537603
0.00068695
0.000301299
-0.000998977
0.000374176
0.000589826
-0.00118284
-0.000684321
0.000730611
-0.000812977
-0.00191206
0.000450736
-0.00222873
2.33413e-05
-1.46889e-05
0.000179226
-1.55224e-05
-3.35095e-05
0.000277341
-1.80619e-05
-4.68944e-05
0.000289295
-1.7435e-05
-5.46841e-05
0.000277522
-1.5225e-05
-5.73757e-05
0.000262756
-1.29078e-05
-5.59637e-05
0.000251926
-1.07235e-05
-5.0934e-05
0.000246714
-8.86654e-06
-4.21461e-05
0.00024791
-7.46826e-06
-2.89924e-05
0.000256866
-6.65438e-06
-1.02623e-05
0.000275226
-6.35993e-06
1.48298e-05
0.000306989
-6.28938e-06
4.4769e-05
0.000355965
-3.72762e-06
7.06762e-05
0.000428345
8.94155e-06
5.89628e-05
0.000521488
5.60564e-05
-7.97294e-05
0.000626572
0.00018581
-0.000453337
0.000617399
0.000443158
-0.000985568
0.00016067
0.000745737
-0.00120063
-0.00119901
0.000729753
-0.000915909
-0.00250937
0.00031259
-0.00302856
-0.000116081
-3.59257e-05
0.000238766
-2.36145e-05
-5.84111e-05
0.000327782
-2.79561e-05
-6.85884e-05
0.000325901
-2.64293e-05
-6.95384e-05
0.00030135
-2.28787e-05
-6.52947e-05
0.000277161
-1.86484e-05
-5.73378e-05
0.000258565
-1.45966e-05
-4.56443e-05
0.000246136
-1.11152e-05
-2.90015e-05
0.000239663
-8.39652e-06
-5.65135e-06
0.000240112
-6.59628e-06
2.68901e-05
0.000248059
-5.37495e-06
7.13528e-05
0.000266916
-4.38952e-06
0.000129719
0.000298054
-4.54361e-07
0.000194968
0.000347634
1.54614e-05
0.000241506
0.000410074
6.48766e-05
0.000177654
0.000488034
0.00020239
-0.000110373
0.000462092
0.000443334
-0.00059722
-3.83565e-05
0.000685873
-0.000967012
-0.00138767
0.000558452
-0.000892315
-0.00278546
0.000201397
-0.00363725
-0.00028362
-3.03546e-05
0.00030835
-3.92301e-05
-7.03411e-05
0.000406809
-3.90404e-05
-8.83861e-05
0.000378961
-3.50146e-05
-9.2904e-05
0.000333065
-2.71966e-05
-8.57883e-05
0.000291067
-2.10219e-05
-7.07052e-05
0.000258847
-1.5365e-05
-4.94696e-05
0.000235563
-1.06623e-05
-2.18034e-05
0.000219059
-7.06234e-06
1.37091e-05
0.000209465
-4.86551e-06
6.01976e-05
0.000205293
-3.72214e-06
0.000121765
0.000208949
-3.60133e-06
0.000203323
0.000218461
-1.96514e-06
0.000302586
0.000239132
9.23957e-06
0.000408767
0.000260003
4.38901e-05
0.000465641
0.000286854
0.000144306
0.00036178
0.000242485
0.000323468
-1.373e-05
-0.000143004
0.000480157
-0.000542563
-0.00127448
0.000415637
-0.000713507
-0.00275905
0.000144534
-0.00391824
-0.00043252
-0.000180416
0.000537381
-4.86147e-05
-0.000178237
0.000465569
-6.09385e-05
-0.000150386
0.000410305
-5.91951e-05
-0.000118831
0.000351703
-5.01928e-05
-7.87426e-05
0.000288087
-3.71075e-05
-3.51178e-05
0.000240228
-2.50061e-05
1.04778e-05
0.000205641
-1.5674e-05
5.94049e-05
0.000179088
-8.95565e-06
0.000112961
0.000161058
-5.14835e-06
0.000175665
0.000146806
-4.21747e-06
0.000249768
0.00014057
-5.72269e-06
0.000342436
0.00013478
-8.98756e-06
0.000450592
0.000138399
-7.42407e-06
0.000570159
0.00013269
7.74645e-06
0.000675565
0.000124773
5.66763e-05
0.00070139
5.06793e-05
0.00016598
0.000526329
-0.000216801
0.000248857
4.13334e-06
-0.00102317
0.000270886
-0.000382349
-0.00243113
5.85623e-05
-0.00373097
-0.000569622
-0.000370793
0.0010782
-0.00017003
-0.000261535
0.000481941
-0.000125629
-0.000106733
0.000351659
-9.61568e-05
6.29974e-05
0.00024998
-6.80075e-05
0.000224351
0.000176618
-4.9886e-05
0.00037202
0.000128088
-3.55286e-05
0.000504228
9.81285e-05
-2.46951e-05
0.000623629
7.65977e-05
-1.69105e-05
0.000732553
6.38848e-05
-1.17519e-05
0.000836314
5.27477e-05
-9.70188e-06
0.000938652
4.8866e-05
-1.06348e-05
0.001046
4.28505e-05
-1.54169e-05
0.00116254
4.26613e-05
-2.08069e-05
0.00128395
3.25564e-05
-2.12749e-05
0.00140828
1.3402e-05
-1.29571e-05
0.00148486
-5.7735e-05
3.18383e-05
0.00142705
-0.000245641
8.66439e-05
0.00102349
-0.000733138
0.000113533
0.000278985
-0.00168933
2.69854e-06
-0.00275171
-0.000700275
0.00122705
-0.000148847
0.0018686
-0.000159612
0.00237865
-0.00015839
0.00277226
-0.00014363
0.00307493
-0.000126054
0.00331388
-0.000110855
0.00350869
-9.6679e-05
0.00367118
-8.58952e-05
0.00380989
-7.48246e-05
0.00393095
-6.83113e-05
0.00404055
-6.07404e-05
0.00414219
-5.87883e-05
0.00423839
-5.35331e-05
0.0043259
-5.4952e-05
0.00438396
-4.46577e-05
0.00437094
-4.47202e-05
0.0041483
-2.29979e-05
0.00346947
-5.43111e-05
0.00189508
-0.00011494
-0.000856622
-4.56874e-06
5.18983e-06
-1.24181e-06
-1.4456e-05
1.07515e-05
-1.07946e-06
-2.62188e-05
1.26335e-05
-8.8332e-07
-3.84714e-05
1.31243e-05
-7.61351e-07
-5.07448e-05
1.31618e-05
-7.76749e-07
-6.28486e-05
1.30388e-05
-9.08752e-07
-7.4577e-05
1.27674e-05
-1.14987e-06
-8.56439e-05
1.22632e-05
-1.51569e-06
-9.56446e-05
1.14135e-05
-2.02875e-06
-0.000104037
1.00912e-05
-2.71487e-06
-0.000110142
8.16411e-06
-3.59711e-06
-0.00011316
5.5142e-06
-4.68736e-06
-0.000112231
2.07048e-06
-5.97534e-06
-0.000106532
-2.15708e-06
-7.41183e-06
-9.54708e-05
-6.98392e-06
-8.8865e-06
-7.89385e-05
-1.19796e-05
-1.02292e-05
-5.76812e-05
-1.63483e-05
-1.11852e-05
-3.38361e-05
-1.87701e-05
-1.14495e-05
-1.16682e-05
-1.72446e-05
-1.06994e-05
-7.92296e-06
-7.02748e-06
-1.03701e-05
1.64485e-05
-2.65456e-06
-2.89686e-05
3.07131e-05
-2.92384e-06
-5.04672e-05
3.55252e-05
-2.78262e-06
-7.26459e-05
3.66631e-05
-2.59647e-06
-9.46119e-05
3.64881e-05
-2.53935e-06
-0.000115892
3.57363e-05
-2.61286e-06
-0.000136049
3.44658e-05
-2.82131e-06
-0.000154546
3.25095e-05
-3.19078e-06
-0.000170701
2.96205e-05
-3.75747e-06
-0.000183654
2.55134e-05
-4.56146e-06
-0.000192374
1.98923e-05
-5.63886e-06
-0.000195667
1.24809e-05
-7.01059e-06
-0.000192369
3.2235e-06
-8.66635e-06
-0.000181313
-7.90907e-06
-1.05614e-05
-0.000161704
-2.0424e-05
-1.25137e-05
-0.000133513
-3.32184e-05
-1.42966e-05
-9.79821e-05
-4.43455e-05
-1.55513e-05
-5.84269e-05
-5.05384e-05
-1.58417e-05
-2.13736e-05
-4.68432e-05
-1.46277e-05
-2.39499e-05
-9.06448e-06
-1.27744e-05
3.03148e-05
-3.48661e-06
-3.51225e-05
5.47633e-05
-4.03358e-06
-6.07038e-05
6.28546e-05
-3.93719e-06
-8.69225e-05
6.45847e-05
-3.70962e-06
-0.000112758
6.40112e-05
-3.59378e-06
-0.000137671
6.2382e-05
-3.60685e-06
-0.000161171
5.98221e-05
-3.76271e-06
-0.000182673
5.60878e-05
-4.09821e-06
-0.000201438
5.0798e-05
-4.6633e-06
-0.000216536
4.34991e-05
-5.51454e-06
-0.000226834
3.37108e-05
-6.70658e-06
-0.000231035
2.10038e-05
-8.28145e-06
-0.000227675
5.1485e-06
-1.02548e-05
-0.000215291
-1.39347e-05
-1.25513e-05
-0.000192807
-3.543e-05
-1.50037e-05
-0.000159919
-5.75843e-05
-1.73145e-05
-0.000117847
-7.70901e-05
-1.90048e-05
-7.04449e-05
-8.82442e-05
-1.94652e-05
-2.57321e-05
-8.2289e-05
-1.79491e-05
-4.31581e-05
-1.09011e-05
-1.36553e-05
4.52666e-05
-4.16446e-06
-3.75955e-05
8.07252e-05
-4.96137e-06
-6.49347e-05
9.22785e-05
-4.91404e-06
-9.29267e-05
9.46099e-05
-4.66507e-06
-0.000120548
9.36395e-05
-4.51433e-06
-0.000147294
9.11738e-05
-4.49315e-06
-0.00017272
8.74209e-05
-4.62635e-06
-0.000196291
8.20688e-05
-4.96416e-06
-0.000217305
7.46011e-05
-5.57418e-06
-0.000234839
6.43737e-05
-6.53678e-06
-0.000247699
5.06697e-05
-7.93643e-06
-0.000254404
3.27943e-05
-9.84879e-06
-0.000253221
1.02721e-05
-1.23177e-05
-0.0002422
-1.72035e-05
-1.53487e-05
-0.000219516
-4.882e-05
-1.86976e-05
-0.000184154
-8.21402e-05
-2.19886e-05
-0.000136911
-0.000112296
-2.4542e-05
-8.21026e-05
-0.000130398
-2.54235e-05
-2.96884e-05
-0.000122592
-2.35247e-05
-6.4499e-05
-1.41387e-05
-1.39798e-05
6.07611e-05
-4.75553e-06
-3.87576e-05
0.000107865
-5.79303e-06
-6.71125e-05
0.00012308
-5.79741e-06
-9.62188e-05
0.000126107
-5.54281e-06
-0.000125094
0.000124874
-5.38289e-06
-0.000153319
0.000121798
-5.36385e-06
-0.000180558
0.000117197
-5.52361e-06
-0.000206385
0.000110706
-5.92962e-06
-0.000230203
0.000101675
-6.67349e-06
-0.000251149
8.92455e-05
-7.86976e-06
-0.000267998
7.23913e-05
-9.65055e-06
-0.000279072
5.00132e-05
-1.2149e-05
-0.000282172
2.11558e-05
-1.54778e-05
-0.000274691
-1.48891e-05
-1.96843e-05
-0.000253633
-5.78418e-05
-2.45639e-05
-0.000216671
-0.000104739
-2.96009e-05
-0.000163584
-0.000148996
-3.38024e-05
-9.89217e-05
-0.000177554
-3.56251e-05
-3.55042e-05
-0.000169234
-3.3155e-05
-8.87888e-05
-1.96605e-05
-1.41589e-05
7.66746e-05
-5.3395e-06
-3.9594e-05
0.000136038
-6.6283e-06
-6.88146e-05
0.000155147
-6.6894e-06
-9.89251e-05
0.000159005
-6.43904e-06
-0.000129001
0.000157703
-6.28617e-06
-0.000158746
0.000154341
-6.29401e-06
-0.000187977
0.000149387
-6.51673e-06
-0.000216447
0.000142455
-7.04404e-06
-0.000243736
0.00013278
-7.99984e-06
-0.000269131
0.000119284
-9.54671e-06
-0.000291463
0.000100572
-1.18873e-05
-0.000308909
7.49796e-05
-1.52526e-05
-0.000318773
4.07746e-05
-1.98759e-05
-0.000317635
-3.37783e-06
-2.59516e-05
-0.000300766
-5.87518e-05
-3.33421e-05
-0.000263703
-0.000122122
-4.14174e-05
-0.000204071
-0.000185498
-4.87182e-05
-0.000125749
-0.000230643
-5.25914e-05
-4.54002e-05
-0.000225371
-4.93776e-05
-0.000118695
-2.86495e-05
-1.43178e-05
9.3022e-05
-5.98418e-06
-4.04127e-05
0.000165299
-7.55592e-06
-7.05052e-05
0.00018854
-7.67859e-06
-0.000101614
0.000193351
-7.43143e-06
-0.000132882
0.000192169
-7.28509e-06
-0.000164165
0.000188869
-7.32326e-06
-0.000195484
0.000184134
-7.6205e-06
-0.000226845
0.000177616
-8.29486e-06
-0.000258114
0.000168491
-9.51302e-06
-0.000288869
0.000155497
-1.15045e-05
-0.000318178
0.000136861
-1.45764e-05
-0.00034428
0.000110255
-1.91199e-05
-0.000364161
7.28711e-05
-2.55834e-05
-0.000373254
2.19492e-05
-3.43456e-05
-0.000365181
-4.53461e-05
-4.57673e-05
-0.000332036
-0.000127929
-5.91215e-05
-0.000267244
-0.000217032
-7.22807e-05
-0.000171293
-0.00028937
-8.06674e-05
-6.42877e-05
-0.000296646
-7.68664e-05
-0.000161436
-4.34339e-05
-1.44848e-05
0.000109865
-6.74093e-06
-4.12859e-05
0.000195774
-8.6452e-06
-7.2261e-05
0.000223349
-8.83003e-06
-0.000104309
0.000229158
-8.57055e-06
-0.000136644
0.000228208
-8.40992e-06
-0.000169297
0.000225265
-8.45661e-06
-0.000202545
0.000221315
-8.80987e-06
-0.000236729
0.000216146
-9.62194e-06
-0.000272136
0.000208984
-1.11127e-05
-0.000308842
0.000198497
-1.35997e-05
-0.000346441
0.00018263
-1.75368e-05
-0.000383617
0.000158406
-2.35555e-05
-0.000417502
0.000121782
-3.24577e-05
-0.000442753
6.78775e-05
-4.51646e-05
-0.000451709
-7.87336e-06
-6.27142e-05
-0.000431903
-0.000110019
-8.47455e-05
-0.000369485
-0.000231936
-0.000108402
-0.000254904
-0.000349748
-0.000125843
-0.000105081
-0.00039511
-0.000122302
-0.00023783
-6.85717e-05
-1.46888e-05
0.000127315
-7.66122e-06
-4.22682e-05
0.000227645
-9.96591e-06
-7.41073e-05
0.000259665
-1.02065e-05
-0.000106936
0.000266363
-9.9014e-06
-0.000140035
0.000265591
-9.68146e-06
-0.000173625
0.000263147
-9.68464e-06
-0.000208277
0.00026043
-1.00381e-05
-0.000244741
0.000257493
-1.09319e-05
-0.000283865
0.00025379
-1.26462e-05
-0.000326467
0.000248144
-1.56031e-05
-0.000373083
0.000238493
-2.04445e-05
-0.000423496
0.000221503
-2.81369e-05
-0.000475951
0.000192126
-4.0067e-05
-0.000525963
0.000143396
-5.80104e-05
-0.000564909
6.70645e-05
-8.36605e-05
-0.000578183
-4.6675e-05
-0.000118417
-0.00053944
-0.000207327
-0.000157316
-0.000415254
-0.000404137
-0.000186667
-0.000197143
-0.000551942
-0.000182947
-0.000402867
-0.000109154
-1.50092e-05
0.000145595
-8.81306e-06
-4.3508e-05
0.000261209
-1.16076e-05
-7.618e-05
0.000297603
-1.18879e-05
-0.000109528
0.000304826
-1.14815e-05
-0.000142884
0.000303907
-1.11279e-05
-0.000176669
0.000301827
-1.09993e-05
-0.000211756
0.000300516
-1.12525e-05
-0.000249336
0.000300443
-1.21134e-05
-0.000290909
0.000301516
-1.39194e-05
-0.000338267
0.000303071
-1.71982e-05
-0.00039337
0.00030356
-2.27961e-05
-0.000457999
0.000299998
-3.20696e-05
-0.000533093
0.000287282
-4.71003e-05
-0.00061773
0.000257501
-7.06678e-05
-0.000706495
0.00019837
-0.000105398
-0.00078422
8.78376e-05
-0.000150245
-0.000808191
-0.000119623
-0.000194791
-0.000695954
-0.000466966
-0.000215679
-0.000376079
-0.000846688
-0.000203275
-0.000763998
-0.000152676
-1.56206e-05
0.000165145
-1.03006e-05
-4.53359e-05
0.000296973
-1.37007e-05
-7.88441e-05
0.000337365
-1.39889e-05
-0.000112363
0.000344367
-1.33967e-05
-0.000145272
0.000342571
-1.27997e-05
-0.000178182
0.000340305
-1.24096e-05
-0.000212242
0.000340115
-1.2411e-05
-0.000249046
0.00034302
-1.30558e-05
-0.000290726
0.000349615
-1.47186e-05
-0.000340109
0.000360165
-1.79974e-05
-0.000400897
0.000374354
-2.38814e-05
-0.000477751
0.000390772
-3.39915e-05
-0.000576355
0.000406159
-5.07709e-05
-0.00070282
0.000413432
-7.67889e-05
-0.000859568
0.000393997
-0.000111067
-0.00102976
0.000294712
-0.000140044
-0.0011438
-6.33798e-06
-0.000130978
-0.00105546
-0.00062096
-7.60595e-05
-0.000616083
-0.00136655
-6.76849e-05
-0.00141067
-0.000146129
-1.68694e-05
0.000186817
-1.22961e-05
-4.83857e-05
0.000335823
-1.64647e-05
-8.28225e-05
0.000379329
-1.67221e-05
-0.000116096
0.000384809
-1.58241e-05
-0.000147673
0.000380881
-1.48225e-05
-0.000178353
0.000377332
-1.39856e-05
-0.000209484
0.000377343
-1.35264e-05
-0.000242918
0.000382535
-1.37058e-05
-0.000281216
0.000394345
-1.48953e-05
-0.000328031
0.000414322
-1.76773e-05
-0.000388676
0.000444088
-2.29922e-05
-0.000470745
0.000484981
-3.22184e-05
-0.000585037
0.000537
-4.65748e-05
-0.000744952
0.000593108
-6.337e-05
-0.000958407
0.000617901
-6.58543e-05
-0.0012021
0.000501799
-1.19844e-05
-0.00138788
3.89109e-05
0.000138727
-0.00131147
-0.00092491
0.000301335
-0.000778428
-0.00204185
0.000211386
-0.00223964
-5.31349e-05
-1.93008e-05
0.000212088
-1.50565e-05
-5.36353e-05
0.000379174
-2.01219e-05
-8.92916e-05
0.000424144
-2.02067e-05
-0.000121941
0.000426073
-1.88127e-05
-0.000151196
0.000418078
-1.72205e-05
-0.000178059
0.000411474
-1.57449e-05
-0.000204004
0.000409996
-1.46047e-05
-0.000230886
0.000415734
-1.40329e-05
-0.000261219
0.000430864
-1.43396e-05
-0.000298767
0.000458279
-1.59388e-05
-0.000349431
0.000501754
-1.93354e-05
-0.000422083
0.000565457
-2.45934e-05
-0.000530012
0.000651867
-2.87702e-05
-0.000689188
0.000749168
-1.71655e-05
-0.000913626
0.000797925
5.21592e-05
-0.00118936
0.000634463
0.000245564
-0.00143578
1.21102e-05
0.000556436
-0.00137754
-0.00125676
0.000718663
-0.000815412
-0.00261577
0.000376494
-0.00305032
2.01588e-05
-2.45706e-05
0.000244184
-1.92406e-05
-6.35197e-05
0.000429427
-2.5707e-05
-0.00010041
0.000472381
-2.56352e-05
-0.000131375
0.000467576
-2.3511e-05
-0.000156952
0.000453192
-2.09242e-05
-0.000178478
0.000441491
-1.83602e-05
-0.000197217
0.000436227
-1.61161e-05
-0.000214565
0.000439679
-1.44267e-05
-0.000232436
0.000454564
-1.34747e-05
-0.000253648
0.000484625
-1.33592e-05
-0.00028302
0.000535259
-1.37932e-05
-0.000328029
0.000612208
-1.24938e-05
-0.00040163
0.000719595
-9.95014e-07
-0.000521576
0.000837723
5.02631e-05
-0.000719563
0.000897378
0.000203113
-0.00100385
0.000701341
0.000518713
-0.00129618
-8.07602e-06
0.000902334
-0.00125342
-0.00145824
0.000889339
-0.000767703
-0.00293138
0.000280627
-0.00374984
-4.48442e-05
-3.13115e-05
0.00028502
-2.50469e-05
-7.68225e-05
0.000489282
-3.24062e-05
-0.000116808
0.000526644
-3.17123e-05
-0.000147689
0.000511578
-2.83457e-05
-0.000169508
0.000486684
-2.45808e-05
-0.000184216
0.000466321
-2.08449e-05
-0.000193381
0.000453965
-1.74393e-05
-0.000198048
0.000451417
-1.45388e-05
-0.000199043
0.000461124
-1.2219e-05
-0.00019723
0.000486689
-1.02368e-05
-0.000194983
0.000534242
-7.51975e-06
-0.000195918
0.00060925
1.65689e-07
-0.000211687
0.00071807
2.62352e-05
-0.000259652
0.000834424
0.000107321
-0.000394887
0.000909455
0.000308968
-0.000632929
0.000715786
0.000666755
-0.00090525
1.72675e-05
0.000992714
-0.00093217
-0.00146522
0.000763652
-0.00062667
-0.00305186
0.000127573
-0.0042993
-0.000193286
-6.48192e-05
0.000361491
-3.5266e-05
-0.000117093
0.000559012
-4.54127e-05
-0.000151688
0.000578692
-4.38823e-05
-0.000172174
0.000548173
-3.89882e-05
-0.000184243
0.000513083
-3.29787e-05
-0.000189917
0.000484281
-2.6883e-05
-0.000189438
0.000463623
-2.12525e-05
-0.000181947
0.000451902
-1.63728e-05
-0.000166325
0.000451225
-1.23199e-05
-0.000140504
0.000464088
-8.59492e-06
-0.000103321
0.000496541
-3.87157e-06
-5.32606e-05
0.000551726
7.00943e-06
6.23186e-06
0.000636908
3.71314e-05
5.29001e-05
0.000732314
0.000120318
5.80947e-05
0.000794813
0.000311837
-6.00754e-05
0.000655688
0.000621603
-0.000238712
4.16879e-05
0.000840089
-0.000436324
-0.00125845
0.000549293
-0.000369545
-0.00298183
6.45883e-05
-0.00463279
-0.000319675
-4.50007e-05
0.000420628
-5.33665e-05
-0.000127802
0.000665909
-6.31357e-05
-0.000181979
0.000656177
-5.83225e-05
-0.000210838
0.000598488
-4.8653e-05
-0.000221321
0.000542402
-3.98581e-05
-0.000218408
0.000497305
-3.13016e-05
-0.000204689
0.000462844
-2.36033e-05
-0.000180255
0.000437418
-1.70126e-05
-0.000144109
0.000422013
-1.17992e-05
-9.22304e-05
0.000415927
-7.43979e-06
-2.06329e-05
0.000424475
-3.13312e-06
7.54766e-05
0.000447786
5.86528e-06
0.000199335
0.000492677
2.96126e-05
0.000345664
0.000541553
8.83217e-05
0.000488613
0.000574979
0.000221191
0.000547375
0.000480393
0.00044
0.000448586
5.66565e-05
0.000563978
0.000136711
-0.000913406
0.000382469
2.23681e-05
-0.00275277
2.98188e-05
-0.00465061
-0.00039234
-0.00019224
0.000625947
-6.16939e-05
-0.000223457
0.000719284
-8.30965e-05
-0.000245744
0.000702986
-8.37176e-05
-0.000260023
0.00063607
-7.34951e-05
-0.000249563
0.000553735
-5.89007e-05
-0.000220393
0.000487517
-4.43877e-05
-0.00017721
0.000435841
-3.18534e-05
-0.000120402
0.000393465
-2.18113e-05
-5.16018e-05
0.000362784
-1.47189e-05
3.2412e-05
0.000337811
-1.01142e-05
0.00013329
0.000325702
-7.82705e-06
0.00025852
0.000319217
-5.64899e-06
0.000410546
0.000329441
3.78582e-06
0.000586984
0.000339463
3.33985e-05
0.000782536
0.000339835
9.62677e-05
0.000932176
0.000274099
0.000222634
0.00100861
-4.50883e-05
0.000274173
0.000843399
-0.000679445
0.00020213
0.000520407
-0.00236583
-5.39424e-06
-0.00425061
-0.000449213
-0.000667112
0.00128669
-0.000163663
-0.00062753
0.000707178
-0.000153106
-0.000486596
0.000591771
-0.000125875
-0.000290425
0.000473905
-0.000102014
-8.51815e-05
0.000382389
-8.37829e-05
0.000118375
0.000315651
-6.72197e-05
0.000313822
0.000269203
-5.35042e-05
0.000500448
0.000232181
-4.22515e-05
0.000678857
0.00020625
-3.36273e-05
0.000851357
0.00018356
-2.7952e-05
0.00102232
0.000169655
-2.55485e-05
0.00119423
0.000157824
-2.59369e-05
0.0013799
0.000151212
-2.82497e-05
0.00157347
0.000145198
-2.05788e-05
0.00179506
0.000117117
-1.18227e-05
0.00200218
6.53208e-05
3.34957e-05
0.00210951
-0.000140286
7.45081e-05
0.00205827
-0.000560785
4.61167e-05
0.00139739
-0.00167061
-3.16372e-05
-0.00306092
-0.000492574
0.00126974
-0.000131891
0.00197006
-0.000152755
0.00256043
-0.000156986
0.00304092
-0.000150214
0.00343703
-0.000139783
0.00377031
-0.000128486
0.00405975
-0.000116914
0.00431351
-0.000107469
0.00454192
-9.69842e-05
0.00474751
-9.03471e-05
0.00493816
-8.17346e-05
0.005117
-7.98042e-05
0.00528628
-7.16033e-05
0.00545238
-7.58464e-05
0.00558671
-6.18758e-05
0.00568039
-7.30826e-05
0.00556608
-4.89665e-05
0.00504959
-9.86128e-05
0.00337617
-0.000112133
-0.000541367
-5.18047e-06
5.5003e-06
-1.56164e-06
-1.65437e-05
1.20994e-05
-1.81562e-06
-3.00491e-05
1.43739e-05
-1.75187e-06
-4.40312e-05
1.49074e-05
-1.68664e-06
-5.79277e-05
1.48519e-05
-1.73215e-06
-7.15191e-05
1.45792e-05
-1.89653e-06
-8.45889e-05
1.41074e-05
-2.18747e-06
-9.68243e-05
1.33452e-05
-2.62548e-06