/*--------------------------------*- C++ -*----------------------------------*\
  =========                 |
  \\      /  F ield         | OpenFOAM: The Open Source CFD Toolbox
   \\    /   O peration     | Website:  https://openfoam.org
    \\  /    A nd           | Version:  10
     \\/     M anipulation  |
\*---------------------------------------------------------------------------*/
FoamFile
{
    format      ascii;
    class       volScalarField;
    location    "5.675";
    object      p;
}
// * * * * * * * * * * * * * * * * * * * * * * * * * * * * * * * * * * * * * //

dimensions      [0 2 -2 0 0 0 0];

internalField   nonuniform List<scalar> 
400
(
2.40301e-09
-2.12411e-05
1.88334e-05
9.75095e-05
0.000220996
0.000390512
0.000607669
0.000874118
0.00119071
0.00155676
0.00196911
0.00242114
0.0029017
0.00339415
0.00387587
0.00431892
0.00469145
0.00496151
0.00512106
0.00510926
2.22557e-05
2.92816e-07
4.40892e-05
0.000122412
0.000243046
0.000407947
0.000619221
0.000878909
0.00118824
0.00154696
0.0019525
0.0023987
0.00287493
0.00336573
0.00384863
0.00429549
0.00467351
0.00494995
0.00511828
0.00510382
-2.30584e-05
-5.14102e-05
-9.24549e-06
6.58414e-05
0.00018246
0.000342846
0.000549638
0.000805667
0.00111314
0.00147299
0.00188388
0.00234129
0.00283641
0.00335333
0.00386892
0.00435247
0.0047665
0.0050712
0.00525763
0.00523307
-0.000116681
-0.000149748
-0.000110213
-3.97995e-05
7.1034e-05
0.000224971
0.00042548
0.000676583
0.000982045
0.00134468
0.00176538
0.0022418
0.00276693
0.00332714
0.00389823
0.00444562
0.00492333
0.0052792
0.00549915
0.00546613
-0.000264301
-0.000301918
-0.000266294
-0.000202215
-9.91413e-05
4.61845e-05
0.000238292
0.000482738
0.000785355
0.00115163
0.00158566
0.00208862
0.00265671
0.0032791
0.00393138
0.00457442
0.0051515
0.00559025
0.00586539
0.00582302
-0.000465354
-0.000508098
-0.000477785
-0.000422129
-0.000329584
-0.000196272
-1.64704e-05
0.000217169
0.000512987
0.000879889
0.00132639
0.0018588
0.00247855
0.00318093
0.00394314
0.00472197
0.00544665
0.00601569
0.00638005
0.00632697
-0.000718437
-0.000767297
-0.000743899
-0.000699354
-0.000621155
-0.000504885
-0.000343642
-0.000128197
0.000152599
0.000511717
0.000963345
0.00152086
0.00219256
0.00298938
0.00389013
0.00485271
0.00579132
0.00656519
0.00707685
0.0070165
-0.00102196
-0.00107819
-0.00106352
-0.00103334
-0.000974319
-0.000881786
-0.000747926
-0.000561836
-0.000309596
2.61611e-05
0.000466411
0.00103524
0.00175788
0.00264021
0.00369811
0.00489583
0.0061371
0.00723367
0.00799995
0.00795629
-0.00137389
-0.00143888
-0.00143473
-0.00142241
-0.0013881
-0.00132739
-0.00123217
-0.00109054
-0.000886528
-0.000598951
-0.000200435
0.000343308
0.00107164
0.00202145
0.00323713
0.0047103
0.00636256
0.00797023
0.00919631
0.00926639
-0.00177169
-0.00184682
-0.00185449
-0.00186323
-0.00185919
-0.001839
-0.00179534
-0.00171664
-0.00158646
-0.00138168
-0.00107025
-0.000608419
6.24313e-05
0.00101513
0.00230663
0.00402549
0.00616987
0.00856455
0.0106323
0.0111303
-0.00221259
-0.00229905
-0.00231856
-0.00235029
-0.00238103
-0.0024095
-0.0024305
-0.00243469
-0.00240793
-0.00232925
-0.00216767
-0.00187743
-0.00139194
-0.000618776
0.000556583
0.00226529
0.00478279
0.00824335
0.0118678
0.0133633
-0.00269448
-0.00279284
-0.00282158
-0.00287556
-0.00294296
-0.00302574
-0.00312248
-0.00322824
-0.00333465
-0.00342834
-0.00348862
-0.00348423
-0.00336698
-0.00306381
-0.0024774
-0.00144569
0.00054551
0.00467034
0.0103786
0.014205
-0.00321782
-0.00332779
-0.00335925
-0.00343046
-0.00353122
-0.00366847
-0.00384647
-0.00406676
-0.00433061
-0.0046393
-0.00499473
-0.00540166
-0.00587355
-0.00645995
-0.00732641
-0.00863545
-0.00964987
-0.00675363
0.000246049
0.00852811
-0.00378356
-0.0038963
-0.00391209
-0.00398743
-0.00411411
-0.00430261
-0.00456071
-0.00489798
-0.00532777
-0.00587054
-0.00656124
-0.00746463
-0.00871054
-0.010566
-0.0136986
-0.0187892
-0.0256243
-0.0256264
-0.0183573
-0.00449715
-0.00442541
-0.00455293
-0.00453877
-0.00460802
-0.00473598
-0.00494694
-0.00525766
-0.00568734
-0.0062622
-0.00702319
-0.00804056
-0.00943959
-0.0114856
-0.0146383
-0.0200644
-0.0287409
-0.041471
-0.0449964
-0.038549
-0.0198508
-0.00522308
-0.00515412
-0.00503219
-0.00501488
-0.00512618
-0.00537093
-0.00575175
-0.00627984
-0.00698246
-0.00790872
-0.00914936
-0.0108617
-0.0134086
-0.0172278
-0.0239456
-0.0337019
-0.0487273
-0.0536132
-0.0483786
-0.0249551
-0.00571539
-0.00615088
-0.0058858
-0.00592391
-0.00595124
-0.00610959
-0.0064163
-0.00690051
-0.00759587
-0.00854634
-0.00984161
-0.0116049
-0.0142644
-0.0180212
-0.024621
-0.0335818
-0.046162
-0.0497303
-0.0426584
-0.0101658
-0.00907531
-0.00656682
-0.00598213
-0.00546253
-0.00544816
-0.00569382
-0.006145
-0.00676305
-0.00756419
-0.00857061
-0.00988354
-0.0115561
-0.0140024
-0.0173667
-0.0226836
-0.0290329
-0.0366936
-0.0360408
-0.0232654
0.0257297
-0.00583523
-0.00882298
-0.00782359
-0.00790192
-0.00752788
-0.00736922
-0.00740902
-0.00767667
-0.00820863
-0.00899052
-0.0101019
-0.0115667
-0.0138148
-0.0167677
-0.021736
-0.0267108
-0.0319347
-0.0215811
0.00664101
0.0875966
-0.0309359
-0.00594403
-0.0045463
-0.00385817
-0.00372186
-0.00401412
-0.00463883
-0.00538556
-0.00632259
-0.00740851
-0.00884507
-0.0105405
-0.0129722
-0.0156551
-0.0187804
-0.0190001
-0.0130477
0.0183229
0.0888357
0.224972
)
;

boundaryField
{
    movingWall
    {
        type            zeroGradient;
    }
    fixedWalls
    {
        type            zeroGradient;
    }
    frontAndBack
    {
        type            empty;
    }
}


// ************************************************************************* //
