/*--------------------------------*- C++ -*----------------------------------*\
  =========                 |
  \\      /  F ield         | OpenFOAM: The Open Source CFD Toolbox
   \\    /   O peration     | Website:  https://openfoam.org
    \\  /    A nd           | Version:  10
     \\/     M anipulation  |
\*---------------------------------------------------------------------------*/
FoamFile
{
    format      ascii;
    class       surfaceScalarField;
    location    "5.725";
    object      phi;
}
// * * * * * * * * * * * * * * * * * * * * * * * * * * * * * * * * * * * * * //

dimensions      [0 3 -1 0 0 0 0];

internalField   nonuniform List<scalar> 
760
(
-8.95405e-06
8.95405e-06
-2.97226e-05
2.07685e-05
-5.42479e-05
2.45253e-05
-7.92987e-05
2.50507e-05
-0.000103837
2.45382e-05
-0.00012742
2.35836e-05
-0.000149621
2.22006e-05
-0.000169874
2.02526e-05
-0.000187443
1.75694e-05
-0.000201413
1.39699e-05
-0.000210693
9.28051e-06
-0.000214055
3.36153e-06
-0.000210201
-3.85402e-06
-0.000197947
-1.22539e-05
-0.000176457
-2.14897e-05
-0.000145582
-3.08755e-05
-0.000106427
-3.9155e-05
-6.23746e-05
-4.40523e-05
-2.11756e-05
-4.1199e-05
-2.11756e-05
-2.18107e-05
3.07647e-05
-6.19392e-05
6.0897e-05
-0.000107602
7.01881e-05
-0.000153639
7.10874e-05
-0.00019811
6.90099e-05
-0.000239994
6.54674e-05
-0.000278376
6.05824e-05
-0.000312229
5.41061e-05
-0.000340353
4.56932e-05
-0.000361351
3.49675e-05
-0.000373606
2.1536e-05
-0.000375481
5.23654e-06
-0.000365205
-1.41307e-05
-0.000341207
-3.62516e-05
-0.000302518
-6.01791e-05
-0.000249195
-8.41979e-05
-0.000183129
-0.000105221
-0.000109594
-0.000117587
-4.01376e-05
-0.000110656
-6.13132e-05
-2.70565e-05
5.78212e-05
-7.52759e-05
0.000109116
-0.000129529
0.000124441
-0.000183868
0.000125426
-0.000236101
0.000121243
-0.000285069
0.000114436
-0.000329751
0.000105264
-0.000369025
9.33797e-05
-0.000401594
7.82626e-05
-0.000425953
5.93265e-05
-0.000440416
3.59992e-05
-0.000443051
7.87073e-06
-0.000431699
-2.54822e-05
-0.00040449
-6.34608e-05
-0.000360004
-0.000104665
-0.000297929
-0.000146273
-0.000220078
-0.000183072
-0.00013244
-0.000205226
-4.8849e-05
-0.000194246
-0.000110162
-2.90497e-05
8.6871e-05
-8.08933e-05
0.00016096
-0.000139067
0.000182615
-0.000197281
0.00018364
-0.000253327
0.000177289
-0.000306096
0.000167205
-0.000354625
0.000153792
-0.000397846
0.000136601
-0.000434499
0.000114915
-0.000463053
8.78803e-05
-0.000481665
5.46112e-05
-0.000488188
1.4394e-05
-0.000480002
-3.36683e-05
-0.000454325
-8.91372e-05
-0.000408729
-0.000150261
-0.00034182
-0.000213181
-0.000254835
-0.000270057
-0.000154338
-0.000305723
-5.69556e-05
-0.000291629
-0.000167118
-3.01964e-05
0.000117067
-8.45825e-05
0.000215346
-0.000145681
0.000243713
-0.000206956
0.000244915
-0.000266249
0.000236583
-0.000322579
0.000223535
-0.000375128
0.000206341
-0.000422975
0.000184448
-0.000464969
0.000156909
-0.000499613
0.000122524
-0.000524932
7.99303e-05
-0.000538363
2.78248e-05
-0.00053671
-3.53216e-05
-0.000515899
-0.000109947
-0.000471827
-0.000194333
-0.000401143
-0.000283865
-0.000303486
-0.000367714
-0.000185806
-0.000423403
-6.89246e-05
-0.00040851
-0.000236042
-3.13544e-05
0.000148422
-8.84057e-05
0.000272397
-0.000152648
0.000307956
-0.000217275
0.000309542
-0.000280202
0.00029951
-0.000340632
0.000283965
-0.000397971
0.000263681
-0.000451537
0.000238013
-0.0005004
0.000205773
-0.00054321
0.000165335
-0.000577966
0.000114686
-0.000601753
5.16114e-05
-0.000610679
-2.63956e-05
-0.000598908
-0.000121718
-0.000559871
-0.00023337
-0.000486939
-0.000356798
-0.000376526
-0.000478127
-0.000234771
-0.000565157
-8.84513e-05
-0.00055483
-0.000324494
-3.27374e-05
0.000181159
-9.28961e-05
0.000332556
-0.000160769
0.000375828
-0.000229218
0.000377991
-0.000296256
0.000366548
-0.000361328
0.000349038
-0.000424158
0.00032651
-0.00048443
0.000298285
-0.000541609
0.000262952
-0.000594703
0.000218429
-0.000641922
0.000161906
-0.000680164
8.98531e-05
-0.000705211
-1.34825e-06
-0.000708892
-0.000118037
-0.000681454
-0.000260808
-0.000611047
-0.000427205
-0.00048786
-0.000601314
-0.000313811
-0.000739206
-0.00012242
-0.000746221
-0.000446914
-3.43799e-05
0.000215539
-9.81479e-05
0.000396324
-0.000170128
0.000447809
-0.000242774
0.000450637
-0.000314217
0.00043799
-0.000384212
0.000419032
-0.000452906
0.000395204
-0.000520516
0.000365896
-0.000587141
0.000329576
-0.000652488
0.000283776
-0.000715454
0.000224871
-0.00077345
0.000147849
-0.000821236
4.64373e-05
-0.000850667
-8.86059e-05
-0.000846954
-0.000264521
-0.000791017
-0.000483143
-0.000661922
-0.000730408
-0.000449422
-0.000951707
-0.000187567
-0.00100808
-0.000634481
-3.63193e-05
0.000251858
-0.000104228
0.000464233
-0.000180727
0.000524307
-0.000257764
0.000527675
-0.00033361
0.000513837
-0.000408398
0.00049382
-0.000482811
0.000469618
-0.000557783
0.000440867
-0.000634334
0.000406127
-0.000713327
0.000362769
-0.000794998
0.000306542
-0.000878104
0.000230956
-0.000958338
0.000126672
-0.00102824
-1.87027e-05
-0.00106932
-0.000223439
-0.00105434
-0.000498125
-0.000944521
-0.000840229
-0.000699541
-0.00119669
-0.000324914
-0.0013827
-0.000959396
-3.86764e-05
0.000290535
-0.000111353
0.000536909
-0.000192723
0.000605677
-0.000274132
0.000609084
-0.000354012
0.000593716
-0.000432931
0.000572739
-0.000512203
0.00054889
-0.000593637
0.000522301
-0.000679476
0.000491966
-0.00077227
0.000455564
-0.000874547
0.00040882
-0.000988042
0.00034445
-0.00111208
0.000250712
-0.00124102
0.000110239
-0.00136177
-0.000102694
-0.00144086
-0.000419034
-0.00141342
-0.000867669
-0.00116891
-0.0014412
-0.00061275
-0.00193886
-0.00157215
-4.17298e-05
0.000332265
-0.000120024
0.000615204
-0.000206609
0.000692262
-0.00029214
0.000694615
-0.000375258
0.000676834
-0.000457017
0.000654498
-0.000539403
0.000631275
-0.000625159
0.000608057
-0.000717922
0.000584729
-0.0008224
0.000560042
-0.000944437
0.000530857
-0.00109073
0.000490739
-0.00126794
0.000427922
-0.00148035
0.000322656
-0.0017284
0.000145355
-0.00198708
-0.000160361
-0.00214548
-0.000709266
-0.00194048
-0.0016462
-0.00109762
-0.00278172
-0.00266977
-4.60362e-05
0.000378301
-0.000131232
0.000700399
-0.000223414
0.000784445
-0.000312568
0.000783769
-0.000397661
0.000761927
-0.000480283
0.00073712
-0.00056306
0.000714052
-0.000649568
0.000694566
-0.000744746
0.000679906
-0.000855533
0.000670828
-0.00099174
0.000667065
-0.00116716
0.000666162
-0.00140069
0.00066145
-0.00171682
0.00063879
-0.00213728
0.000565809
-0.00263891
0.000341273
-0.00302896
-0.000319221
-0.00280717
-0.00186798
-0.00160983
-0.00397906
-0.0042796
-5.25965e-05
0.000430897
-0.000146674
0.000794477
-0.000244948
0.000882719
-0.000337013
0.000875833
-0.000422319
0.000847234
-0.000503103
0.000817904
-0.000582572
0.00079352
-0.000664731
0.000776725
-0.000755205
0.00077038
-0.000862442
0.000778065
-0.000999562
0.000804185
-0.00118733
0.000853925
-0.00145827
0.000932391
-0.0018574
0.00103793
-0.00242233
0.00113074
-0.00308468
0.00100362
-0.00352578
0.000121886
-0.00319825
-0.00219552
-0.00187819
-0.00529912
-0.00615779
-6.40524e-05
0.00049495
-0.000170174
0.000900598
-0.000274297
0.000986842
-0.000367231
0.000968767
-0.000450301
0.000930303
-0.000526453
0.000894056
-0.000598667
0.000865735
-0.000670731
0.000848789
-0.000747985
0.000847634
-0.000838684
0.000868765
-0.000956513
0.000922014
-0.00112426
0.00102167
-0.00137841
0.00118654
-0.00176132
0.00142084
-0.00228991
0.00165933
-0.00285152
0.00156522
-0.00317305
0.000443423
-0.00286966
-0.00249892
-0.00185489
-0.00631389
-0.00801267
-7.79681e-05
0.000572918
-0.000199631
0.00102226
-0.000312846
0.00110006
-0.00040952
0.00106544
-0.000489517
0.0010103
-0.000557196
0.000961735
-0.000616472
0.00092501
-0.000670712
0.000903029
-0.000723305
0.000900227
-0.000779
0.00092446
-0.000846502
0.000989516
-0.000939667
0.00111483
-0.00108277
0.00132964
-0.00129406
0.00163213
-0.00158145
0.00194672
-0.00184147
0.00182524
-0.00201098
0.000612938
-0.00196964
-0.00254026
-0.00147526
-0.00680827
-0.00948793
-0.00014443
0.000717348
-0.000280208
0.00115804
-0.000382614
0.00120246
-0.000460613
0.00114344
-0.000525328
0.00107502
-0.000580574
0.00101698
-0.000626962
0.000971399
-0.000663572
0.000939639
-0.000689278
0.000925932
-0.000701991
0.000937174
-0.000700025
0.00098755
-0.000680921
0.00109573
-0.000645874
0.0012946
-0.000581335
0.00156759
-0.000497644
0.00186303
-0.000416661
0.00174425
-0.000418923
0.0006152
-0.000717864
-0.00224131
-0.000778561
-0.00674758
-0.0102665
-9.49418e-05
0.00081229
-0.000294372
0.00135747
-0.000440267
0.00134836
-0.000540445
0.00124362
-0.000606596
0.00114117
-0.000648521
0.00105891
-0.000670969
0.000993846
-0.000674813
0.000943483
-0.000657975
0.000909094
-0.000612628
0.000891826
-0.000528131
0.000903053
-0.000384316
0.000951915
-0.000157186
0.00106747
0.00017093
0.00123948
0.000605391
0.00142857
0.00100979
0.00133985
0.00111294
0.000512054
0.000549436
-0.00167781
5.03383e-05
-0.00624848
-0.0102162
-0.000388152
0.00120044
-0.00047384
0.00144316
-0.000558378
0.0014329
-0.000635284
0.00132052
-0.000667546
0.00117343
-0.00066205
0.00105341
-0.00062599
0.000957786
-0.000560297
0.000877791
-0.000468056
0.000816853
-0.000342004
0.000765774
-0.000175073
0.000736122
5.24025e-05
0.000724439
0.000366638
0.00075323
0.00079393
0.000812184
0.0013436
0.0008789
0.00187073
0.000812721
0.00224345
0.000139337
0.00191968
-0.00135404
0.0010082
-0.005337
-0.00920796
-0.0013534
0.00255384
-0.00131801
0.00140776
-0.00107326
0.00118815
-0.000719215
0.000966482
-0.00034269
0.000796904
3.69641e-05
0.000673756
0.000406619
0.00058813
0.000764013
0.000520397
0.00110942
0.000471445
0.00144565
0.000429543
0.00178133
0.00040044
0.00212425
0.000381523
0.00250676
0.000370724
0.00294447
0.000374474
0.00349424
0.000329122
0.0040746
0.00023236
0.00442512
-0.000211178
0.00428394
-0.00121286
0.00267121
-0.00372426
-0.00653675
0.00255384
0.0039616
0.00514975
0.00611624
0.00691314
0.00758689
0.00817503
0.00869542
0.00916687
0.00959641
0.00999685
0.0103784
0.0107491
0.0111236
0.0114527
0.0116851
0.0114739
0.010261
0.00653675
)
;

boundaryField
{
    movingWall
    {
        type            calculated;
        value           uniform 0;
    }
    fixedWalls
    {
        type            calculated;
        value           uniform 0;
    }
    frontAndBack
    {
        type            empty;
        value           nonuniform List<scalar> 0();
    }
}


// ************************************************************************* //
