/*--------------------------------*- C++ -*----------------------------------*\
  =========                 |
  \\      /  F ield         | OpenFOAM: The Open Source CFD Toolbox
   \\    /   O peration     | Website:  https://openfoam.org
    \\  /    A nd           | Version:  10
     \\/     M anipulation  |
\*---------------------------------------------------------------------------*/
FoamFile
{
    format      ascii;
    class       volVectorField;
    location    "3.6";
    object      U;
}
// * * * * * * * * * * * * * * * * * * * * * * * * * * * * * * * * * * * * * //

dimensions      [0 1 -1 0 0 0 0];

internalField   nonuniform List<vector> 
400
(
(-0.00014076 0.000137829 0)
(-0.000898746 0.000349936 0)
(-0.00205915 0.000391811 0)
(-0.0031338 0.00038474 0)
(-0.00416651 0.000364679 0)
(-0.00512328 0.000337189 0)
(-0.00597993 0.000301957 0)
(-0.00671455 0.000257934 0)
(-0.00730383 0.000204197 0)
(-0.00772368 0.000140121 0)
(-0.00795008 6.55605e-05 0)
(-0.0079599 -1.88963e-05 0)
(-0.0077328 -0.000112498 0)
(-0.00725413 -0.000212296 0)
(-0.00651772 -0.000314073 0)
(-0.00552836 -0.000412052 0)
(-0.00430973 -0.000497719 0)
(-0.00292531 -0.000554676 0)
(-0.00135019 -0.00053055 0)
(-0.00024839 -0.000258736 0)
(-0.000366152 0.000902582 0)
(-0.00176479 0.00171251 0)
(-0.00372305 0.00185657 0)
(-0.00554495 0.0018041 0)
(-0.00727828 0.00168833 0)
(-0.00886667 0.00153305 0)
(-0.0102682 0.00134034 0)
(-0.0114469 0.00110928 0)
(-0.0123669 0.000839043 0)
(-0.0129933 0.000529615 0)
(-0.013293 0.000182132 0)
(-0.0132363 -0.000200798 0)
(-0.012798 -0.000610824 0)
(-0.011961 -0.00103643 0)
(-0.010722 -0.00146114 0)
(-0.00909362 -0.00186241 0)
(-0.00711669 -0.00220763 0)
(-0.00488409 -0.00243338 0)
(-0.0023756 -0.00234888 0)
(-0.000515196 -0.00133415 0)
(-0.000432315 0.00212471 0)
(-0.00203578 0.00370984 0)
(-0.00425374 0.00397308 0)
(-0.00631202 0.00384428 0)
(-0.00826621 0.00358084 0)
(-0.0100544 0.00323109 0)
(-0.0116308 0.00280185 0)
(-0.0129566 0.00229396 0)
(-0.0139931 0.00170806 0)
(-0.014703 0.00104596 0)
(-0.0150513 0.000311572 0)
(-0.0150024 -0.000488007 0)
(-0.0145256 -0.0013379 0)
(-0.0136014 -0.00221506 0)
(-0.0122216 -0.0030864 0)
(-0.0103948 -0.003907 0)
(-0.00816148 -0.00461243 0)
(-0.00562318 -0.00507652 0)
(-0.00275452 -0.00492999 0)
(-0.000606125 -0.00295849 0)
(-0.000458097 0.00335477 0)
(-0.00216685 0.00574374 0)
(-0.00453167 0.00612656 0)
(-0.00672346 0.00591926 0)
(-0.00880742 0.0055086 0)
(-0.0107196 0.0049669 0)
(-0.0124139 0.00430497 0)
(-0.0138508 0.00352476 0)
(-0.0149906 0.00262749 0)
(-0.0157939 0.00161557 0)
(-0.016222 0.000494475 0)
(-0.0162351 -0.000724616 0)
(-0.0157938 -0.00202439 0)
(-0.0148658 -0.00337248 0)
(-0.013431 -0.00472058 0)
(-0.0114869 -0.00600037 0)
(-0.00906575 -0.00711104 0)
(-0.0062752 -0.00785485 0)
(-0.003084 -0.00766347 0)
(-0.000679067 -0.00466916 0)
(-0.000483841 0.00466421 0)
(-0.00230397 0.00791305 0)
(-0.00482905 0.0084232 0)
(-0.00716928 0.00813486 0)
(-0.00940027 0.00757278 0)
(-0.0114565 0.0068346 0)
(-0.0132923 0.00593526 0)
(-0.0148683 0.0048774 0)
(-0.0161444 0.00366195 0)
(-0.017079 0.0022904 0)
(-0.0176286 0.000767193 0)
(-0.0177466 -0.000896759 0)
(-0.0173816 -0.00268194 0)
(-0.0164845 -0.0045501 0)
(-0.0150146 -0.00644015 0)
(-0.0129469 -0.00825915 0)
(-0.0102964 -0.00986201 0)
(-0.00717536 -0.0109608 0)
(-0.00354644 -0.0107503 0)
(-0.000784039 -0.00661137 0)
(-0.000517502 0.00606421 0)
(-0.00247893 0.0102425 0)
(-0.0052063 0.0108909 0)
(-0.00773425 0.0105196 0)
(-0.0101508 0.0098026 0)
(-0.0123891 0.00886498 0)
(-0.0144043 0.007726 0)
(-0.0161588 0.00638853 0)
(-0.0176128 0.00485198 0)
(-0.0187231 0.00311481 0)
(-0.019442 0.00117726 0)
(-0.0197147 -0.000954591 0)
(-0.0194746 -0.00326576 0)
(-0.0186487 -0.00571676 0)
(-0.0171663 -0.0082374 0)
(-0.0149663 -0.0107102 0)
(-0.0120294 -0.012937 0)
(-0.00846437 -0.0145115 0)
(-0.00422353 -0.0143309 0)
(-0.000943405 -0.0088859 0)
(-0.000560425 0.00757772 0)
(-0.00269861 0.0127703 0)
(-0.00567685 0.0135698 0)
(-0.00843585 0.0131121 0)
(-0.0110794 0.0122356 0)
(-0.0135393 0.0110953 0)
(-0.0157733 0.00971541 0)
(-0.0177468 0.00809864 0)
(-0.0194226 0.00624161 0)
(-0.0207579 0.00413714 0)
(-0.0217018 0.00177707 0)
(-0.0221929 -0.000843007 0)
(-0.0221468 -0.00372114 0)
(-0.0214597 -0.00682673 0)
(-0.0200184 -0.0100903 0)
(-0.017705 -0.0133748 0)
(-0.0144376 -0.0164203 0)
(-0.0102979 -0.0186636 0)
(-0.00521726 -0.0186055 0)
(-0.00118877 -0.011649 0)
(-0.000613218 0.0092323 0)
(-0.00296674 0.0155421 0)
(-0.00624785 0.0165059 0)
(-0.009282 0.0159558 0)
(-0.0121932 0.0149123 0)
(-0.0149123 0.0135647 0)
(-0.017402 0.011943 0)
(-0.0196334 0.0100501 0)
(-0.0215749 0.00787876 0)
(-0.0231882 0.0054135 0)
(-0.0244225 0.00263267 0)
(-0.0252131 -0.000487609 0)
(-0.0254587 -0.00396512 0)
(-0.0250195 -0.00779945 0)
(-0.0237261 -0.0119395 0)
(-0.0213746 -0.0162438 0)
(-0.0177734 -0.0203905 0)
(-0.0129224 -0.0236126 0)
(-0.00670961 -0.0238516 0)
(-0.00158452 -0.0151441 0)
(-0.000677194 0.0110578 0)
(-0.00328902 0.0186067 0)
(-0.006929 0.0197469 0)
(-0.0102826 0.0190928 0)
(-0.0134998 0.0178706 0)
(-0.0165116 0.0163084 0)
(-0.0192886 0.0144444 0)
(-0.0218115 0.0122825 0)
(-0.0240596 0.00981141 0)
(-0.0260043 0.00700523 0)
(-0.0276031 0.00382358 0)
(-0.0287907 0.000213922 0)
(-0.0294588 -0.00387385 0)
(-0.029436 -0.00849698 0)
(-0.0284792 -0.0136556 0)
(-0.0262649 -0.0192403 0)
(-0.0224225 -0.0248871 0)
(-0.0167527 -0.0295844 0)
(-0.00905569 -0.0304552 0)
(-0.00227351 -0.0197805 0)
(-0.000755224 0.0130885 0)
(-0.00367557 0.0220187 0)
(-0.00773618 0.0233424 0)
(-0.0114532 0.0225641 0)
(-0.0150108 0.021144 0)
(-0.0183419 0.0193557 0)
(-0.0214287 0.0172483 0)
(-0.024267 0.0148289 0)
(-0.0268529 0.0120833 0)
(-0.0291767 0.00897492 0)
(-0.0312143 0.00544189 0)
(-0.0329107 0.00139627 0)
(-0.0341701 -0.00327112 0)
(-0.0348043 -0.00869983 0)
(-0.0344935 -0.0149961 0)
(-0.0327624 -0.022156 0)
(-0.0289732 -0.0298447 0)
(-0.0225111 -0.0367933 0)
(-0.0129998 -0.0389572 0)
(-0.00359219 -0.0263125 0)
(-0.000853192 0.0153674 0)
(-0.00414444 0.0258409 0)
(-0.00869579 0.0273448 0)
(-0.0128193 0.026408 0)
(-0.0167451 0.0247596 0)
(-0.0204111 0.0227262 0)
(-0.0238165 0.0203716 0)
(-0.0269776 0.0177094 0)
(-0.0299146 0.0147256 0)
(-0.0326467 0.011376 0)
(-0.0351828 0.00757826 0)
(-0.0375048 0.0032034 0)
(-0.0395568 -0.00193568 0)
(-0.0411673 -0.00808376 0)
(-0.0419743 -0.0155423 0)
(-0.0413511 -0.0245389 0)
(-0.0383068 -0.0349405 0)
(-0.0314966 -0.0452951 0)
(-0.0201823 -0.0500331 0)
(-0.00636734 -0.0362761 0)
(-0.00098307 0.0179539 0)
(-0.00472782 0.03015 0)
(-0.00985138 0.0318096 0)
(-0.0144213 0.0306579 0)
(-0.0187329 0.0287338 0)
(-0.0227341 0.0264249 0)
(-0.026447 0.0238132 0)
(-0.0299144 0.0209231 0)
(-0.0331877 0.0177466 0)
(-0.0363257 0.0142391 0)
(-0.039389 0.0103072 0)
(-0.0424276 0.00578839 0)
(-0.0454621 0.000421435 0)
(-0.0484255 -0.00617445 0)
(-0.0510213 -0.014605 0)
(-0.0525582 -0.0255009 0)
(-0.0516887 -0.0392626 0)
(-0.0460093 -0.0545405 0)
(-0.0341311 -0.0642642 0)
(-0.0126692 -0.0530632 0)
(-0.00117056 0.0209374 0)
(-0.00548485 0.0350466 0)
(-0.011274 0.0367931 0)
(-0.0163223 0.035336 0)
(-0.0210213 0.0330672 0)
(-0.0253363 0.0304372 0)
(-0.0293201 0.0275481 0)
(-0.0330459 0.0244393 0)
(-0.0366003 0.0211167 0)
(-0.0400882 0.0175477 0)
(-0.0436361 0.013646 0)
(-0.0473944 0.00923907 0)
(-0.0515279 0.00401359 0)
(-0.0562249 -0.00256201 0)
(-0.0614502 -0.0113111 0)
(-0.0667426 -0.0235277 0)
(-0.0706533 -0.0407261 0)
(-0.0696055 -0.0624895 0)
(-0.0609205 -0.0816381 0)
(-0.0263167 -0.0832353 0)
(-0.00146761 0.024421 0)
(-0.00653589 0.0406721 0)
(-0.0130886 0.042406 0)
(-0.018617 0.04052 0)
(-0.0236765 0.0377827 0)
(-0.0282578 0.0347386 0)
(-0.0324467 0.0315223 0)
(-0.0363472 0.0281877 0)
(-0.0400804 0.0247557 0)
(-0.043797 0.0212217 0)
(-0.0476983 0.0175492 0)
(-0.0520627 0.0136338 0)
(-0.0572737 0.00922107 0)
(-0.0638048 0.00374091 0)
(-0.0722724 -0.00386831 0)
(-0.0832817 -0.0156618 0)
(-0.0958176 -0.0347927 0)
(-0.104693 -0.0646552 0)
(-0.103157 -0.101668 0)
(-0.0454126 -0.139393 0)
(-0.00189398 0.0289496 0)
(-0.00786257 0.0467381 0)
(-0.0153947 0.0480638 0)
(-0.0214432 0.045454 0)
(-0.0268446 0.0422678 0)
(-0.0315994 0.0389233 0)
(-0.0358697 0.0354879 0)
(-0.0398072 0.0319965 0)
(-0.0435536 0.0284969 0)
(-0.0472701 0.0250419 0)
(-0.0511813 0.0216881 0)
(-0.0556553 0.0184626 0)
(-0.0613249 0.015318 0)
(-0.0692151 0.0119378 0)
(-0.0809406 0.00735235 0)
(-0.0986266 -0.000950718 0)
(-0.122542 -0.0185065 0)
(-0.142018 -0.0588214 0)
(-0.144259 -0.131935 0)
(-0.0490038 -0.236179 0)
(-0.00376043 0.0330486 0)
(-0.0116206 0.0560518 0)
(-0.0189477 0.0568695 0)
(-0.0249921 0.0536928 0)
(-0.0302719 0.0493473 0)
(-0.0350482 0.0448706 0)
(-0.0393524 0.0405117 0)
(-0.0432706 0.0363728 0)
(-0.0469016 0.0325249 0)
(-0.0503877 0.0290444 0)
(-0.0539554 0.0260931 0)
(-0.0579789 0.0239168 0)
(-0.0631541 0.0229214 0)
(-0.070751 0.0234626 0)
(-0.0830564 0.0253358 0)
(-0.102757 0.0250248 0)
(-0.130826 0.0119485 0)
(-0.149289 -0.0515 0)
(-0.1512 -0.185082 0)
(-0.0262106 -0.352495 0)
(-0.00163621 0.0471431 0)
(-0.0100997 0.0592735 0)
(-0.0224498 0.0582544 0)
(-0.0292095 0.0533375 0)
(-0.0354926 0.0492983 0)
(-0.0401753 0.0454484 0)
(-0.0438864 0.0417126 0)
(-0.0469222 0.0380366 0)
(-0.0494785 0.0345119 0)
(-0.0516652 0.0312412 0)
(-0.0535846 0.0285667 0)
(-0.0553677 0.0268934 0)
(-0.0574064 0.0272124 0)
(-0.0604036 0.0303812 0)
(-0.0663468 0.0373689 0)
(-0.0755229 0.0413816 0)
(-0.0983799 0.0292306 0)
(-0.104205 -0.0568108 0)
(-0.111909 -0.24222 0)
(-0.00205074 -0.440856 0)
(-0.0111636 0.0378462 0)
(-0.0262188 0.0830699 0)
(-0.0277374 0.0793141 0)
(-0.0357699 0.0732274 0)
(-0.0394118 0.0652777 0)
(-0.0415785 0.0577657 0)
(-0.0422851 0.0509988 0)
(-0.0421065 0.0449614 0)
(-0.0413545 0.039693 0)
(-0.0400797 0.0351078 0)
(-0.0385568 0.0314899 0)
(-0.0364288 0.0293331 0)
(-0.0340869 0.0297406 0)
(-0.0299501 0.0340142 0)
(-0.0268499 0.0447282 0)
(-0.0135423 0.0523892 0)
(-0.0140122 0.0476045 0)
(0.0167779 -0.0441477 0)
(-0.016899 -0.268535 0)
(0.0319869 -0.478744 0)
(-0.0749642 0.100896 0)
(-0.0595584 0.0640557 0)
(-0.060432 0.0619771 0)
(-0.0404928 0.0547593 0)
(-0.0238679 0.047267 0)
(-0.0059007 0.0412627 0)
(0.0107339 0.0364665 0)
(0.0263569 0.0321643 0)
(0.0401172 0.0285976 0)
(0.0532777 0.0250253 0)
(0.0643435 0.0225217 0)
(0.0759881 0.0200806 0)
(0.0853603 0.0196647 0)
(0.101156 0.0195979 0)
(0.107823 0.021416 0)
(0.150187 0.019409 0)
(0.147396 -0.0021797 0)
(0.207965 -0.0589491 0)
(0.147063 -0.255272 0)
(0.120577 -0.440925 0)
(0.120737 0.140436 0)
(0.1552 0.0870851 0)
(0.23497 0.0649366 0)
(0.290812 0.0497861 0)
(0.334659 0.0391613 0)
(0.37261 0.0313279 0)
(0.403318 0.0257458 0)
(0.432811 0.0213059 0)
(0.453275 0.0178591 0)
(0.478732 0.0153006 0)
(0.489717 0.0123517 0)
(0.515058 0.0115145 0)
(0.516256 0.00856213 0)
(0.546503 0.00900214 0)
(0.535676 0.00674792 0)
(0.573725 0.00341832 0)
(0.542014 -0.00285704 0)
(0.562997 -0.0311632 0)
(0.431348 -0.0788038 0)
(0.277595 -0.1533 0)
)
;

boundaryField
{
    movingWall
    {
        type            fixedValue;
        value           uniform (1 0 0);
    }
    fixedWalls
    {
        type            noSlip;
    }
    frontAndBack
    {
        type            empty;
    }
}


// ************************************************************************* //
