/*--------------------------------*- C++ -*----------------------------------*\
  =========                 |
  \\      /  F ield         | OpenFOAM: The Open Source CFD Toolbox
   \\    /   O peration     | Website:  https://openfoam.org
    \\  /    A nd           | Version:  10
     \\/     M anipulation  |
\*---------------------------------------------------------------------------*/
FoamFile
{
    format      ascii;
    class       volScalarField;
    location    "7";
    object      p;
}
// * * * * * * * * * * * * * * * * * * * * * * * * * * * * * * * * * * * * * //

dimensions      [0 2 -2 0 0 0 0];

internalField   nonuniform List<scalar> 
496
(
30.0529
30.982
27.3734
21.3101
30.2508
31.701
27.8521
21.6587
34.5111
32.5325
23.8278
13.7479
43.2373
38.925
36.149
20.2541
12.3902
2.34395
12.5746
3.13418
-1.35505
-6.78815
-29.6115
-53.017
-5.51953
-11.368
-14.7514
-15.8793
-4.35367
-11.4358
-16.6565
-19.1072
-1.65101
-5.63117
-11.0711
-17.4421
-25.3701
-18.4316
-13.0669
-20.7537
-15.4613
-14.3029
-12.1717
-10.0101
-9.48639
-10.3293
-11.4236
-11.8448
-12.0642
-12.1978
-12.6197
-13.2507
-13.5271
-13.0875
-11.971
-10.8141
-9.61898
-8.31818
-6.7901
-5.59679
-4.55841
-3.67789
-2.87026
-2.51854
-2.56101
-2.68449
-2.76633
-2.6636
-2.58555
-2.2374
-1.76038
-1.13267
-0.342727
0.5893
1.63593
2.14804
2.13296
1.58508
0.908047
0.327354
-18.718
-16.2273
-12.6852
-10.2757
-9.6739
-10.2519
-11.0374
-11.6561
-12.0696
-12.4438
-13.0901
-13.705
-13.9895
-13.2398
-12.1209
-10.9313
-9.66987
-8.28584
-6.80002
-5.54614
-4.22362
-3.13779
-2.48696
-2.25969
-2.44326
-2.6183
-2.91693
-2.86545
-2.74451
-2.39989
-1.95692
-1.31893
-0.404338
0.735149
1.82186
2.30229
2.20841
1.54678
0.887908
0.320572
-20.009
-16.9683
-12.0364
-9.33013
-9.07164
-9.626
-10.4345
-11.1682
-11.775
-12.9231
-14.4182
-15.3525
-15.1374
-14.014
-13.1127
-11.9586
-10.4241
-8.32774
-6.65083
-5.19658
-3.90799
-2.92477
-2.13212
-2.29074
-2.6563
-3.60329
-3.96697
-4.31311
-3.90079
-2.94445
-1.82673
-0.49147
0.861138
1.75372
2.40707
2.72783
1.9416
0.92939
0.167261
-0.36365
-23.6594
-17.1822
-11.9654
-7.57149
-4.77533
-8.01503
-9.93571
-10.4689
-11.4654
-13.2392
-14.6566
-15.5422
-14.9741
-14.0453
-13.4803
-12.8133
-11.6118
-9.26985
-7.11844
-4.47064
-2.20007
-0.603869
-0.131426
-0.709373
-1.6432
-3.378
-4.52119
-5.24396
-5.19762
-4.64924
-3.46665
-1.19038
1.59825
4.47058
5.21065
5.37289
3.19788
1.54682
0.262529
-0.924651
47.9593
49.3404
64.4779
77.9401
47.3882
50.7411
63.9527
77.1765
-36.5452
-36.5201
-30.4594
-31.921
-38.4146
-42.4508
-23.5086
-21.9248
-20.4933
-15.1903
-12.7413
-8.52732
-9.62291
-9.02669
-7.84167
-13.4139
-14.1959
-14.8261
-15.7712
-15.6429
-14.7117
-13.8787
-13.4114
-12.1627
-10.4617
-8.62459
-7.02803
-5.57378
-4.29724
-3.08065
-2.31843
-2.27586
-2.67883
-2.96889
-3.1248
-3.77573
-4.09174
-3.52812
-2.49225
-0.887097
0.0582025
1.11081
1.94369
1.31403
0.886642
0.673229
-0.0766564
-0.608879
-21.1137
-10.3134
-11.9099
-9.63483
-7.93652
-9.77491
-10.8116
-12.8081
-14.2657
-16.2272
-17.3303
-16.8845
-14.5775
-12.0291
-10.8024
-9.54371
-7.97391
-6.87305
-6.63669
-6.69822
-6.59817
-6.13955
-5.76702
-5.05595
-4.14222
-2.67825
-1.12064
-0.182788
-0.130515
-0.0866985
-0.148008
-0.334166
-1.14722
-1.87613
-1.83686
-2.02838
-1.8416
-1.1505
-0.239232
0.368124
44.3817
40.9893
38.3315
22.1348
38.0804
34.3376
26.0416
15.5572
32.6239
31.4003
25.9413
20.1156
31.0646
29.9877
25.5393
19.9734
-27.331
-54.9121
-1.9154
-7.32656
10.2016
0.357763
11.2433
1.00083
-27.1223
-10.2508
-11.07
-11.1866
-3.21386
-6.38841
-9.42479
-13.2203
-7.97233
-14.0192
-15.3575
-14.2786
-6.29015
-10.7198
-12.5767
-12.4267
-10.1348
-10.0583
-8.68508
-7.81777
-7.72756
-8.45339
-11.6292
-15.6999
-18.4256
-18.7386
-18.0045
-16.0585
-13.4111
-10.8418
-8.79129
-7.14493
-5.93735
-6.09621
-6.34392
-7.31579
-7.85704
-8.308
-7.41417
-6.13333
-4.49574
-1.87474
0.763735
3.5049
3.762
2.65104
1.06054
-0.311836
-1.80508
-3.41992
-3.61556
-3.71714
-2.67616
-1.63197
0.23781
1.81326
-16.0064
-15.1191
-11.4237
-9.00084
-9.01325
-9.98705
-12.213
-14.2148
-15.4666
-16.0376
-15.9611
-14.746
-12.9133
-11.1296
-9.7143
-8.77618
-7.86899
-7.46871
-7.26399
-7.38637
-7.52213
-7.22992
-6.26596
-4.7662
-3.35137
-1.81953
-0.653678
0.110567
0.972611
0.80127
0.0543158
-0.937014
-1.85402
-2.49898
-2.62892
-2.32574
-1.48203
-0.698902
-0.101337
-0.0386962
-14.0834
-13.9166
-12.1354
-9.51162
-8.40753
-9.65654
-12.1293
-14.1812
-15.0945
-15.1426
-14.7654
-14.0709
-12.8261
-11.2047
-9.65889
-8.58469
-7.84367
-7.18255
-6.80468
-6.58154
-6.38767
-5.86372
-5.20461
-4.43428
-3.63468
-2.75229
-1.77649
-0.767056
0.162022
0.503942
0.414916
-0.0901525
-0.777989
-1.27189
-1.57704
-1.72575
-1.77665
-1.51949
-1.08057
-0.340997
-12.0546
-12.2649
-12.0618
-10.149
-8.48118
-9.30255
-11.9788
-14.4949
-15.1512
-14.6944
-13.9952
-13.4135
-12.4713
-11.1424
-9.80875
-8.86459
-8.35323
-7.7226
-7.13634
-6.65539
-6.35455
-5.81897
-5.15423
-4.3851
-3.56839
-2.77755
-1.8097
-0.978702
-0.144719
0.285717
0.295647
-0.211715
-0.691415
-1.11176
-1.42355
-1.4749
-1.55412
-1.30784
-0.861817
-0.311267
)
;

boundaryField
{
    inlet
    {
        type            zeroGradient;
    }
    outlet
    {
        type            fixedValue;
        value           uniform 0;
    }
    obstacle
    {
        type            zeroGradient;
    }
    upperWall
    {
        type            zeroGradient;
    }
    lowerWall
    {
        type            zeroGradient;
    }
    frontAndBack
    {
        type            empty;
    }
}


// ************************************************************************* //
