/*--------------------------------*- C++ -*----------------------------------*\
  =========                 |
  \\      /  F ield         | OpenFOAM: The Open Source CFD Toolbox
   \\    /   O peration     | Website:  https://openfoam.org
    \\  /    A nd           | Version:  10
     \\/     M anipulation  |
\*---------------------------------------------------------------------------*/
FoamFile
{
    format      ascii;
    class       surfaceScalarField;
    location    "7";
    object      phi;
}
// * * * * * * * * * * * * * * * * * * * * * * * * * * * * * * * * * * * * * //

dimensions      [0 3 -1 0 0 0 0];

internalField   nonuniform List<scalar> 
928
(
0.0949907
0.00500934
0.103982
-0.00899127
0.105704
-0.00172241
-0.0110215
0.116726
0.0937232
0.0112862
0.105614
-0.020882
0.101673
0.0022184
-0.0217192
0.112371
0.0950692
0.0162169
0.110983
-0.0367959
0.104502
0.00869929
-0.0444344
0.127218
0.104423
0.0117937
0.0912662
-0.023639
0.098362
0.00160356
0.144641
-0.0907137
0.111137
0.00558844
-0.0171248
0.128262
0.108891
0.00906799
-0.043095
0.134861
0.128914
0.00737159
-0.0524131
0.138232
0.152013
0.0995997
0.128611
-0.00034902
0.129179
-0.000567431
0.130037
-0.000858566
-0.000310174
0.130347
0.13771
-0.00319726
0.137448
-0.000306084
0.137096
-0.000505922
-0.00016103
0.136947
0.143014
-0.0079794
0.143296
-0.00058804
0.147559
-0.00476865
0.00330712
0.144091
0.114237
-0.0226164
0.090917
0.0227317
0.106145
-0.0199965
0.102854
0.00659845
0.129296
0.00105181
0.125957
0.00333857
0.123569
0.00238765
0.121487
0.00208245
0.120761
0.000725681
0.120362
0.000399332
0.121611
-0.0012494
0.123329
-0.00171767
0.125499
-0.00217049
0.127747
-0.00224762
0.129084
-0.00133713
0.12955
-0.000466319
0.128505
0.0010451
0.127273
0.00123234
0.124934
0.0023388
0.12258
0.00235466
0.119531
0.00304821
0.116962
0.00256902
0.114742
0.00222071
0.113197
0.00154445
0.112645
0.000552009
0.112673
-2.78815e-05
0.113971
-0.00129841
0.114648
-0.000676556
0.115741
-0.00109295
0.115482
0.000258865
0.114597
0.000885283
0.112004
0.00259305
0.108576
0.00342799
0.105008
0.00356763
0.101451
0.0035569
0.099901
0.00155028
0.0987883
0.00111266
0.100672
-0.00188408
0.102975
-0.00230273
0.106744
-0.00376924
0.110201
-0.00345675
0.112644
-0.0024429
0.114397
-0.0017529
0.000990537
0.136002
0.00199598
0.134053
0.00528748
0.132246
0.00419507
0.129116
0.00521212
0.128349
0.00149252
0.128725
2.34609e-05
0.129954
-0.00247758
0.131664
-0.00342765
0.133934
-0.00444146
0.13586
-0.00417296
0.137016
-0.00249325
0.137974
-0.001424
0.137393
0.00162534
0.136957
0.00166849
0.135236
0.00405998
0.133754
0.00383681
0.131137
0.00566521
0.128995
0.00471084
0.126562
0.00465354
0.124684
0.00342259
0.124432
0.000804102
0.124533
-0.000129281
0.125933
-0.00269848
0.127084
-0.00182707
0.12898
-0.00298864
0.129641
-0.000402783
0.129546
0.00098032
0.128486
0.00365354
0.12618
0.00573354
0.123926
0.00582141
0.120311
0.00717208
0.117909
0.00395304
0.116092
0.0029295
0.116499
-0.0022918
0.117953
-0.00375629
0.12048
-0.00629617
0.123716
-0.00669252
0.125921
-0.00464774
0.128922
-0.00475462
0.000186042
0.13793
0.00815717
0.136846
0.00637152
0.135457
0.00558367
0.134806
0.00586272
0.133969
0.00233009
0.132003
0.00198946
0.130786
-0.00126092
0.131838
-0.00447993
0.132636
-0.00523929
0.132606
-0.00414229
0.133026
-0.00291364
0.13324
-0.00163776
0.13422
0.000644577
0.135005
0.000883534
0.135037
0.00402874
0.133717
0.00515664
0.131633
0.00774871
0.129385
0.0069593
0.127678
0.00636058
0.12659
0.00451091
0.125284
0.00210959
0.124366
0.000788986
0.124526
-0.0028588
0.125565
-0.00286613
0.127221
-0.00464453
0.128994
-0.0021753
0.131167
-0.00119319
0.132302
0.00251873
0.1314
0.00663587
0.128883
0.00833769
0.125535
0.0105208
0.122529
0.00695845
0.120331
0.00512799
0.11822
-0.000181567
0.116878
-0.00241398
0.117111
-0.0065295
0.118031
-0.00761163
0.119259
-0.00587591
0.122188
-0.00768432
-0.0018715
0.100248
0.0107628
0.108771
-0.00215186
0.105698
0.00865729
0.107109
0.00445087
0.111213
-0.00177357
0.104076
0.00912657
0.103835
-0.00102025
0.101798
-0.00244218
0.0961616
0.000396702
0.0932511
-0.00123178
0.0924594
-0.00212196
0.0922102
-0.00138858
0.0943036
-0.00144877
0.0978376
-0.0026505
0.102379
-0.000512769
0.104688
0.00284827
0.108006
0.00443047
0.109426
0.00553913
0.108794
0.00699207
0.10538
0.00792562
0.100454
0.00703578
0.0962884
0.00495415
0.0923475
0.00108208
0.0913635
-0.00188215
0.091484
-0.00476499
0.0952494
-0.00594073
0.100311
-0.00625442
0.106539
-0.00370961
0.112507
0.000667674
0.117057
0.00378757
0.119704
0.00787388
0.117937
0.00872535
0.112793
0.0102721
0.102596
0.0100154
0.0943856
0.00579666
0.0873645
0.000491582
0.0836263
-0.00387337
0.0847998
-0.00704946
0.0882773
-0.0111618
-0.00586603
0.113746
-0.00195208
0.0882854
0.00182148
0.0922474
-0.00235847
0.00153373
0.108669
-0.0106211
0.0888099
0.0216805
0.0846917
0.00175976
0.0862254
0.00255584
-0.0251723
-0.0166293
0.0419168
0.00663195
-0.0432577
-0.000883654
0.0141141
-0.0272303
0.002058
0.00602086
0.00866564
-0.0175864
-0.0196505
-0.019
0.000529986
0.00160495
0.0232719
0.0137279
-0.0142748
0.0125913
0.00979384
0.0151526
0.00188963
0.0193593
-0.00598035
0.0112219
0.017264
0.00213053
0.00807112
0.00527017
-0.00558183
0.00672012
-0.00105324
0.00782281
-0.00233446
0.00738748
-0.00168664
0.00742487
-0.00142596
0.011029
-0.00505291
0.0161632
-0.00778474
0.0192954
-0.00364496
0.0223122
-0.000168448
0.0247854
0.0019572
0.0257311
0.00459348
0.0248946
0.00782859
0.0243369
0.00848326
0.0247981
0.00657459
0.0261419
0.00361033
0.0271761
4.7918e-05
0.0292222
-0.00392829
0.033521
-0.00906375
0.0377632
-0.010183
0.0418906
-0.0103819
0.0457366
-0.00755559
0.0479335
-0.00152917
0.04926
0.002461
0.0485639
0.00857005
0.045553
0.0117362
0.0431052
0.0127199
0.0418998
0.0112208
0.0417165
0.00598001
0.0425612
-0.000353148
0.0436708
-0.00498302
0.0466132
-0.0099918
0.0500367
-0.0145853
-0.00750051
0.00776784
-0.00349591
0.00165799
-0.00816493
0.00845529
0.00299653
0.0114553
-0.00111036
0.00325769
0.00221725
0.0137615
0.00676022
0.0170445
0.00478812
0.00895726
0.00250539
0.00583219
0.00207182
0.00277487
0.000722859
0.00216353
-0.0010753
0.00550523
-0.00476766
0.00838031
-0.007928
0.00730084
-0.00670526
0.00820646
-0.00455058
0.0117206
-0.00368259
0.0148642
-0.00118635
0.0172875
0.00217019
0.021094
0.00402207
0.0253886
0.00418861
0.0292691
0.00269414
0.0320426
0.000836787
0.0338815
-0.00179093
0.0346151
-0.00466188
0.0338393
-0.00828795
0.0332306
-0.00957431
0.0320447
-0.00919592
0.031947
-0.00745791
0.033132
-0.00271418
0.0352256
0.000367353
0.0377986
0.00599708
0.0411636
0.00837123
0.0448802
0.00900329
0.0498562
0.00624482
0.0527523
0.00308391
0.0529782
-0.000579089
0.053237
-0.00524182
0.0506379
-0.00739262
0.0460593
-0.0100067
-0.00564491
0.0985503
-0.00917137
0.0935175
0.0267134
0.0964952
-0.00121797
0.0401447
0.142576
0.0954876
-0.00465901
0.105769
0.0164324
0.104707
-0.000156605
0.0212075
0.123644
0.0970056
-0.00166462
0.107166
0.00627205
0.104579
0.00243073
0.0103631
0.115423
0.0983354
0.104607
0.107038
0.117401
0.154609
-0.012033
0.0432219
0.111387
0.122804
-0.0111924
0.0412943
0.124731
0.109429
-0.00519872
0.015577
0.135147
0.112203
0.12778
0.109671
0.00377422
0.117883
0.000453703
0.100408
-0.00217607
-0.000796321
0.101735
0.130547
-0.0020417
0.132948
-0.00194663
0.130706
6.57962e-05
0.000419508
0.12949
0.133411
-0.000306187
0.132356
-0.000891771
0.132648
-0.000226079
0.00110339
0.131964
0.127473
0.126582
0.126356
0.127459
0.0997043
-0.00146557
0.0906213
0.000918087
0.0896775
0.00394036
0.0859813
0.00258586
0.0858655
0.00233302
0.0879507
0.004675
0.089913
0.00282585
0.0897448
0.00267363
0.0903391
0.00147747
0.0909087
0.000153323
0.0921371
-0.00230373
0.0912677
-0.00389824
0.0875548
-0.00421513
0.0852278
-0.00437822
0.0835644
-0.00288723
0.0823069
-0.00242511
0.0817447
-0.000624121
0.084221
-0.000306084
0.0873763
0.000866793
0.092138
-0.000573169
0.0973135
-0.00248132
0.103035
-0.00488463
0.108641
-0.0073969
0.111747
-0.00776779
0.111717
-0.00825778
0.107835
-0.00569313
0.102394
-0.00375409
0.0950385
-0.000102783
0.0892195
0.00310483
0.0850371
0.00454976
0.0851921
0.0058421
0.0891615
0.00440174
0.0938608
0.00430407
0.100989
-0.000883691
0.107533
-0.00345978
0.114421
-0.0074667
0.11736
-0.00818089
0.116584
-0.00661715
0.111275
-0.00469718
0.000113047
0.127922
0.000102679
0.128091
0.000748269
0.130361
0.00167046
0.130268
0.00267892
0.131325
0.00127579
0.133943
0.00205725
0.135177
0.0015921
0.13533
0.00252039
0.135936
0.000871284
0.136613
-0.000522969
0.136494
-0.00218535
0.136273
-0.0036771
0.135016
-0.00295831
0.134197
-0.00355845
0.13292
-0.0016106
0.132828
-0.0023327
0.132177
2.66392e-05
0.132516
-0.000645452
0.133614
-0.000231516
0.134724
-0.00168292
0.135607
-0.00336368
0.134865
-0.00414324
0.133711
-0.00624277
0.131098
-0.00515445
0.128839
-0.00599874
0.126199
-0.00305355
0.124163
-0.00171767
0.122632
0.00142814
0.122106
0.00363009
0.122354
0.00430212
0.123413
0.00478311
0.125702
0.00211312
0.128459
0.00154711
0.130496
-0.00292094
0.13062
-0.00358352
0.129545
-0.00639211
0.127074
-0.00570956
0.125031
-0.00457412
0.123113
-0.00277943
0.0017598
0.13113
0.000936725
0.131607
0.000271261
0.133642
-0.000364448
0.135085
0.00123576
0.135632
0.00072906
0.137068
0.000621087
0.138559
0.000101564
0.140488
0.00059152
0.140972
0.000386783
0.140636
-0.000187135
0.139571
-0.0011195
0.138028
-0.00213445
0.13673
-0.00166053
0.135007
-0.0018353
0.134233
-0.000836399
0.133007
-0.00110717
0.133451
-0.000417675
0.133344
-0.000537989
0.133632
-0.00051913
0.133032
-0.00108329
0.131579
-0.00191048
0.129823
-0.00238706
0.127049
-0.00346898
0.124781
-0.00288652
0.121886
-0.00310403
0.12016
-0.0013269
0.11913
-0.000688063
0.119627
0.000931544
0.121404
0.00185246
0.123443
0.00226306
0.125964
0.00226212
0.127452
0.000624867
0.128938
6.14946e-05
0.128328
-0.00231101
0.127365
-0.00262028
0.124961
-0.00398788
0.122218
-0.00296654
0.119671
-0.0020278
0.117483
-0.000591015
0.00133431
0.128396
0.128667
0.128302
0.129538
0.130267
0.130888
0.13099
0.131581
0.131968
0.131781
0.130662
0.128527
0.126867
0.125031
0.124195
0.123088
0.12267
0.122132
0.121613
0.12053
0.118619
0.116232
0.112763
0.109877
0.106773
0.105446
0.104758
0.105689
0.107542
0.109805
0.112067
0.112692
0.112753
0.110442
0.107822
0.103834
0.100867
0.0988396
0.0982486
)
;

boundaryField
{
    inlet
    {
        type            calculated;
        value           nonuniform List<scalar> 10(-0.1 -0.1 -0.1 -0.1 -0.1 -0.1 -0.1 -0.1 -0.1 -0.1);
    }
    outlet
    {
        type            calculated;
        value           nonuniform List<scalar> 10(0.113406 0.129727 0.124246 0.0922718 0.0516712 0.0442037 0.105517 0.121466 0.117908 0.0995829);
    }
    obstacle
    {
        type            calculated;
        value           uniform 0;
    }
    upperWall
    {
        type            calculated;
        value           uniform 0;
    }
    lowerWall
    {
        type            calculated;
        value           uniform 0;
    }
    frontAndBack
    {
        type            empty;
        value           nonuniform List<scalar> 0();
    }
}


// ************************************************************************* //
