/*--------------------------------*- C++ -*----------------------------------*\
  =========                 |
  \\      /  F ield         | OpenFOAM: The Open Source CFD Toolbox
   \\    /   O peration     | Website:  https://openfoam.org
    \\  /    A nd           | Version:  10
     \\/     M anipulation  |
\*---------------------------------------------------------------------------*/
FoamFile
{
    format      ascii;
    class       volVectorField;
    location    "7";
    object      U;
}
// * * * * * * * * * * * * * * * * * * * * * * * * * * * * * * * * * * * * * //

dimensions      [0 1 -1 0 0 0 0];

internalField   nonuniform List<vector> 
496
(
(9.91253 0.0986315 0)
(9.90771 -0.179464 0)
(10.1479 -0.0767265 0)
(10.7239 -0.229631 0)
(9.93959 0.697651 0)
(9.82847 -1.51675 0)
(10.0782 -0.055134 0)
(10.8114 -1.28719 0)
(10.6743 1.56108 0)
(9.23073 -3.38289 0)
(11.2789 -0.0203261 0)
(11.0246 -4.63052 0)
(11.2001 2.17732 0)
(8.97292 -3.38222 0)
(11.8549 1.82083 0)
(10.9563 -7.16266 0)
(11.4303 -0.230289 3.5592e-18)
(12.2308 -0.199506 -7.76414e-19)
(11.597 -0.297281 -3.60446e-19)
(12.6104 0.211684 1.81383e-18)
(13.0738 -2.30327 -3.2033e-18)
(13.7938 -0.961017 -1.03657e-18)
(12.1554 -4.81859 -3.37823e-17)
(16.3653 -4.82093 6.01289e-17)
(12.8292 -0.24354 0)
(13.1756 -0.244734 0)
(13.4464 -0.209905 0)
(13.3246 -0.0400273 0)
(13.2048 0.156444 0)
(13.6684 -0.0166709 0)
(14.0574 -0.195713 0)
(14.1513 -0.224144 0)
(13.0731 -0.101914 0)
(13.6682 0.564959 0)
(13.7038 0.469819 0)
(14.3803 0.4377 0)
(8.65023 -2.69543 0)
(11.1215 -1.00996 0)
(9.06997 -1.03659 0)
(9.09947 0.387858 0)
(13.2231 0.101802 0)
(12.849 0.334327 0)
(12.5178 0.410043 0)
(12.0352 0.543262 0)
(11.9728 0.537705 0)
(11.9964 0.575643 0)
(12.1919 0.469475 0)
(12.3137 0.435671 0)
(12.4861 0.398717 0)
(12.6705 0.381861 0)
(12.8022 0.420907 0)
(12.968 0.417177 0)
(12.9577 0.525535 0)
(12.9004 0.516253 0)
(12.6443 0.594043 0)
(12.4082 0.556068 0)
(12.1248 0.608259 0)
(11.7934 0.560718 0)
(11.5714 0.552057 0)
(11.2989 0.491036 0)
(11.3379 0.389857 0)
(11.1801 0.312983 0)
(11.3736 0.209329 0)
(11.3473 0.212161 0)
(11.5889 0.159553 0)
(11.5543 0.231086 0)
(11.5469 0.246595 0)
(11.3683 0.315962 0)
(11.0135 0.367314 0)
(10.734 0.403892 0)
(10.2504 0.479841 0)
(10.0788 0.376444 0)
(9.8895 0.371437 0)
(9.91149 0.16483 0)
(10.2148 0.126347 0)
(10.3258 0.0454594 0)
(11.0027 0.0277636 0)
(11.0025 0.102352 0)
(11.5591 0.0974369 0)
(11.3392 0.259928 0)
(14.0709 -0.0731204 0)
(13.7367 0.105794 0)
(13.2966 -0.058936 0)
(12.9092 -0.229141 0)
(12.7366 -0.4296 0)
(12.7964 -0.507507 0)
(12.8919 -0.711189 0)
(13.1081 -0.776701 0)
(13.2533 -0.822394 0)
(13.4732 -0.796811 0)
(13.6175 -0.653707 0)
(13.8074 -0.492027 0)
(13.8845 -0.271545 0)
(13.8056 -0.202383 0)
(13.6734 -0.0533778 0)
(13.4348 -0.0202477 0)
(13.2734 0.0567856 0)
(12.9551 -0.0397872 0)
(12.7747 -0.104827 0)
(12.5149 -0.176877 0)
(12.4425 -0.258425 0)
(12.4111 -0.278546 0)
(12.4807 -0.416892 0)
(12.6435 -0.311243 0)
(12.7742 -0.344904 0)
(12.9889 -0.113275 0)
(12.9601 -0.00318732 0)
(12.9691 0.238154 0)
(12.7238 0.302005 0)
(12.5317 0.248888 0)
(12.2259 0.149654 0)
(11.8574 -0.129188 0)
(11.7569 -0.186732 0)
(11.4781 -0.533636 0)
(11.7921 -0.551941 0)
(11.777 -0.75262 0)
(12.2809 -0.650466 0)
(12.4306 -0.533102 0)
(12.8063 -0.403628 0)
(12.9713 -0.0249427 0)
(14.3946 0.700801 0)
(14.4509 1.12697 0)
(13.572 1.01426 0)
(13.5933 1.20056 0)
(13.2007 0.642552 0)
(13.3231 0.474753 0)
(13.1231 0.160281 0)
(13.1937 0.0343116 0)
(13.1396 -0.128548 0)
(13.1216 -0.146457 0)
(13.4093 0.0214079 0)
(13.3302 0.110404 0)
(13.6278 0.445316 0)
(13.3418 0.410345 0)
(13.6213 0.776114 0)
(13.332 0.795004 0)
(13.3838 1.10839 0)
(12.9788 1.04372 0)
(12.8634 1.00322 0)
(12.7276 0.806562 0)
(12.5118 0.3841 0)
(12.5462 0.171686 0)
(12.2749 -0.276432 0)
(12.6014 -0.176239 0)
(12.4821 -0.374147 0)
(12.8944 -0.0594191 0)
(12.9973 0.133031 0)
(13.2441 0.498636 0)
(13.267 0.954631 0)
(12.9785 1.10879 0)
(12.8374 1.49365 0)
(12.2436 1.04219 0)
(12.317 0.824803 0)
(11.6957 -0.0921616 0)
(11.8974 -0.407778 0)
(11.5377 -0.746901 0)
(11.7328 -0.896275 0)
(11.8699 -0.564458 0)
(11.9592 -0.666142 0)
(12.4485 0.0249255 0)
(11.0652 0.296782 0)
(11.1955 0.20934 0)
(10.1454 0.30361 0)
(11.478 0.293625 0)
(9.52835 0.143136 0)
(11.234 0.0484683 0)
(10.4258 -0.535585 0)
(10.4478 -0.609945 0)
(9.50343 -0.650553 0)
(9.67415 -0.562854 0)
(9.23304 -0.480198 0)
(9.27749 -0.383183 0)
(9.58079 -0.330342 0)
(9.25215 -0.290303 0)
(10.1983 -0.0619814 0)
(10.0211 0.059378 0)
(11.0986 0.244025 0)
(10.6978 0.30261 0)
(11.1241 0.376074 0)
(10.6655 0.295415 0)
(10.2431 0.22305 0)
(9.97232 0.158063 0)
(9.16173 0.017678 0)
(9.3558 -0.137648 0)
(8.73202 -0.384066 0)
(9.56893 -0.375437 0)
(9.65093 -0.407892 0)
(10.3349 -0.233125 0)
(11.0302 0.050117 0)
(11.3992 0.228377 0)
(12.159 0.440995 0)
(11.8265 0.375676 0)
(11.7724 0.387147 0)
(10.6365 0.314826 0)
(9.92074 0.309235 0)
(8.92247 -0.0210585 0)
(8.31023 -0.313644 0)
(8.61081 -0.479795 0)
(8.25366 -0.871119 0)
(9.28834 -0.414547 0)
(13.368 0.296194 -1.09613e-17)
(7.27318 -0.379038 -1.85391e-17)
(12.3471 -0.588339 3.23977e-17)
(4.83232 -4.26763 -8.84136e-17)
(11.6187 -0.850027 1.10545e-17)
(8.72718 0.925517 1.86712e-17)
(10.237 -0.209734 -3.26445e-17)
(5.91077 4.41813 8.75592e-17)
(-1.03128 -2.12119 0)
(1.49143 4.22145 0)
(-4.97346 -4.82087 0)
(4.7522 -0.0880742 0)
(-8.57147 -2.56677 4.36717e-17)
(0.673288 2.53439 0)
(1.47831 -2.94958 0)
(-6.15613 0.400403 0)
(-0.880701 2.6252 0)
(1.02138 -0.689964 0)
(1.3551 1.04061 0)
(1.57548 0.377833 0)
(0.764765 -0.888235 0)
(3.12492 1.60253 0)
(-0.318725 0.5814 0)
(0.457293 -0.19795 0)
(0.918594 0.587942 0)
(0.53813 0.232309 0)
(0.863071 0.087489 0)
(0.704017 0.195323 0)
(0.826168 0.0636032 0)
(1.42009 -0.341319 0)
(1.64588 -0.102255 0)
(2.16927 0.41303 0)
(2.51623 0.620644 0)
(2.49612 0.696958 0)
(2.47509 0.858282 0)
(2.41602 0.996601 0)
(2.54527 0.872138 0)
(2.51863 0.598078 0)
(2.62748 0.106616 0)
(2.66211 -0.341003 0)
(3.09768 -0.664451 0)
(3.83021 -0.698176 0)
(3.67587 -0.77158 0)
(4.5218 -0.515485 0)
(4.75137 0.00253211 0)
(4.85521 0.445276 0)
(5.18038 0.994387 0)
(4.4634 1.13489 0)
(4.44644 1.2484 0)
(4.4162 1.23822 0)
(3.94943 0.602311 0)
(4.13407 -0.104784 0)
(4.48188 -0.578164 0)
(4.30968 -0.966086 0)
(4.80697 -1.43383 0)
(5.20565 -0.748315 0)
(1.61033 0.652964 0)
(0.887623 -1.54208 0)
(-0.995522 0.693784 0)
(3.10161 -0.116235 0)
(-0.411423 0.1701 0)
(0.803463 1.34093 0)
(2.31782 0.572775 0)
(1.01283 -0.431616 0)
(0.740979 -0.546854 0)
(0.334502 -0.572381 0)
(0.182372 -0.496403 0)
(0.243018 -0.646361 0)
(1.04744 -1.04426 0)
(0.856832 -0.933814 0)
(0.377063 -0.457593 0)
(1.20583 -0.346297 0)
(1.4153 -0.119759 0)
(1.46238 0.266869 0)
(1.76214 0.559576 0)
(2.46008 0.53386 0)
(2.74621 0.286927 0)
(3.20795 0.0258778 0)
(3.15459 -0.263479 0)
(3.48766 -0.556752 0)
(3.47868 -1.06956 0)
(3.49942 -1.20985 0)
(3.12436 -1.1136 0)
(3.09551 -0.817746 0)
(3.30632 -0.20713 0)
(3.3965 0.185025 0)
(3.64412 0.731222 0)
(3.86495 1.07841 0)
(4.19615 1.12463 0)
(4.9485 0.796632 0)
(5.08841 0.443347 0)
(5.30219 -0.0833682 0)
(5.39571 -0.595224 0)
(5.28421 -1.04019 0)
(4.80366 -1.33514 0)
(4.39013 -0.707749 0)
(12.7237 -1.20131 0)
(6.68031 2.38362 0)
(14.4429 -0.184615 0)
(7.89606 6.54989 0)
(11.2385 -0.895922 0)
(8.28298 2.53502 0)
(12.1129 -0.00354495 0)
(9.76296 4.18233 0)
(10.0579 -0.200712 0)
(9.89968 1.09711 0)
(10.6603 0.283265 0)
(10.8042 1.31095 0)
(9.94925 -0.0337434 0)
(10.0858 0.22753 0)
(10.4638 0.0922846 0)
(10.8609 0.286439 0)
(15.0765 5.52099 3.11785e-17)
(13.4793 4.44292 -6.22617e-17)
(13.3996 1.60891 0)
(12.3088 0.567874 0)
(11.921 0.529961 0)
(12.5148 -0.0824289 0)
(11.5212 0.226081 0)
(12.2842 0.125243 0)
(13.8446 3.06337 0)
(9.56377 0.785015 0)
(10.465 0.194656 0)
(10.889 0.0403262 0)
(12.3862 -1.28596 0)
(12.4181 -1.12092 0)
(12.6928 -0.79732 0)
(12.8184 -0.544344 0)
(13.0283 0.00595755 0)
(13.536 0.173245 0)
(13.4768 0.40482 0)
(13.3424 0.562182 0)
(12.7347 0.134409 0)
(12.9936 0.00264441 0)
(12.997 -0.163897 0)
(12.9526 -0.161323 0)
(9.02315 -0.643388 0)
(10.1783 -0.104156 0)
(8.8398 0.300694 0)
(8.62265 0.0784485 0)
(8.83754 0.177062 0)
(8.084 0.414001 0)
(8.87178 0.533154 0)
(8.78815 0.65338 0)
(9.65865 0.682113 0)
(8.89514 0.559513 0)
(9.48298 0.263179 0)
(8.96315 -0.064781 0)
(8.94393 -0.264771 0)
(8.79302 -0.30202 0)
(8.27392 -0.281231 0)
(8.48472 -0.189415 0)
(7.81485 -0.0299381 0)
(8.66481 0.142813 0)
(8.1004 0.310648 0)
(9.18677 0.310728 0)
(9.27738 0.246457 0)
(10.1994 0.0828123 0)
(10.642 -0.0803264 0)
(10.946 -0.261341 0)
(11.4371 -0.357355 0)
(10.8903 -0.386701 0)
(10.8109 -0.367916 0)
(9.61276 -0.284974 0)
(9.21484 -0.171035 0)
(8.59341 0.0473868 0)
(8.37047 0.37004 0)
(8.82545 0.532817 0)
(8.81605 0.649932 0)
(10.0441 0.425782 0)
(10.2339 0.18457 0)
(11.3095 -0.00301989 0)
(11.6387 -0.245858 0)
(11.7622 -0.171312 0)
(11.8927 -0.2787 0)
(10.448 -0.204432 0)
(13.3566 -0.2634 0)
(13.2113 -0.000549382 0)
(13.2193 0.105377 0)
(12.7927 0.253673 0)
(13.1704 0.0949054 0)
(13.0144 0.212949 0)
(13.4071 0.0999568 0)
(13.5218 0.144436 0)
(13.6026 -0.144944 0)
(13.8197 -0.354086 0)
(13.6544 -0.568006 0)
(13.8057 -0.797151 0)
(13.4423 -0.723974 0)
(13.5658 -0.769841 0)
(13.2379 -0.510789 0)
(13.3903 -0.537527 0)
(13.1664 -0.242425 0)
(13.2475 -0.29885 0)
(13.2788 -0.225953 0)
(13.3466 -0.361724 0)
(13.6007 -0.57936 0)
(13.499 -0.757218 0)
(13.5809 -1.13603 0)
(13.142 -1.12307 0)
(13.0742 -1.30877 0)
(12.6437 -0.881959 0)
(12.5879 -0.595289 0)
(12.3234 0.0254054 0)
(12.1289 0.382847 0)
(12.2543 0.500067 0)
(12.1448 0.639148 0)
(12.5789 0.286443 0)
(12.5718 0.25142 0)
(13.0868 -0.401932 0)
(13.0598 -0.584229 0)
(13.1174 -1.15293 0)
(12.8312 -1.22681 0)
(12.5347 -1.11911 0)
(12.4613 -0.779056 0)
(12.1469 0.0808479 0)
(13.3592 0.475392 0)
(13.5136 0.317568 0)
(13.4925 0.226148 0)
(13.3187 0.362799 0)
(13.3212 0.279234 0)
(13.4442 0.284068 0)
(13.8109 0.207669 0)
(13.9669 0.243421 0)
(14.1676 0.253088 0)
(14.08 0.20968 0)
(14.1146 0.152128 0)
(13.9074 0.0774313 0)
(13.8265 0.152763 0)
(13.5577 0.139311 0)
(13.4429 0.273185 0)
(13.339 0.222799 0)
(13.3313 0.309801 0)
(13.3506 0.275282 0)
(13.3392 0.259323 0)
(13.3592 0.166511 0)
(13.2243 0.00862937 0)
(13.0909 -0.0612025 0)
(12.834 -0.179563 0)
(12.5773 -0.048921 0)
(12.3485 -0.0331503 0)
(12.044 0.194489 0)
(11.9925 0.246049 0)
(11.8665 0.419848 0)
(12.0674 0.5015 0)
(12.1774 0.531892 0)
(12.4693 0.485174 0)
(12.678 0.248375 0)
(12.8339 0.119636 0)
(12.9459 -0.209401 0)
(12.7515 -0.218416 0)
(12.7398 -0.318292 0)
(12.2749 -0.1181 0)
(12.1976 0.0324032 0)
(11.7413 0.191344 0)
(11.7897 0.36409 0)
(12.8687 -0.179717 0)
(13.0037 -0.211038 0)
(13.0238 -0.266332 0)
(12.907 -0.159291 0)
(12.7334 -0.162072 0)
(12.825 -0.125349 0)
(13.1097 -0.181951 0)
(13.3064 -0.165598 0)
(13.3844 -0.19454 0)
(13.2058 -0.257701 0)
(13.1645 -0.330381 0)
(12.9089 -0.435466 0)
(12.8526 -0.459894 0)
(12.5284 -0.533094 0)
(12.4899 -0.477121 0)
(12.2855 -0.507034 0)
(12.3583 -0.437769 0)
(12.2387 -0.450712 0)
(12.2177 -0.427151 0)
(12.1075 -0.472239 0)
(11.9641 -0.491674 0)
(11.7687 -0.489243 0)
(11.4148 -0.519534 0)
(11.132 -0.484754 0)
(10.7999 -0.521375 0)
(10.5958 -0.417425 0)
(10.5051 -0.362659 0)
(10.4607 -0.2426 0)
(10.7084 -0.155779 0)
(10.7615 -0.124098 0)
(11.1733 -0.0885927 0)
(11.1587 -0.150539 0)
(11.3969 -0.155668 0)
(11.167 -0.271702 0)
(10.9605 -0.282989 0)
(10.6218 -0.39561 0)
(10.1424 -0.390964 0)
(10.0726 -0.35824 0)
(9.67689 -0.286377 0)
(9.95973 -0.105699 0)
)
;

boundaryField
{
    inlet
    {
        type            fixedValue;
        value           uniform (10 0 0);
    }
    outlet
    {
        type            zeroGradient;
    }
    obstacle
    {
        type            noSlip;
    }
    upperWall
    {
        type            noSlip;
    }
    lowerWall
    {
        type            noSlip;
    }
    frontAndBack
    {
        type            empty;
    }
}


// ************************************************************************* //
