/*--------------------------------*- C++ -*----------------------------------*\
  =========                 |
  \\      /  F ield         | OpenFOAM: The Open Source CFD Toolbox
   \\    /   O peration     | Website:  https://openfoam.org
    \\  /    A nd           | Version:  10
     \\/     M anipulation  |
\*---------------------------------------------------------------------------*/
FoamFile
{
    format      ascii;
    class       surfaceScalarField;
    location    "7.325";
    object      phi;
}
// * * * * * * * * * * * * * * * * * * * * * * * * * * * * * * * * * * * * * //

dimensions      [0 3 -1 0 0 0 0];

internalField   nonuniform List<scalar> 
760
(
-1.10675e-05
1.10675e-05
-3.58623e-05
2.47947e-05
-6.55744e-05
2.97122e-05
-9.6596e-05
3.10215e-05
-0.00012775
3.11538e-05
-0.000158625
3.08748e-05
-0.00018882
3.01951e-05
-0.000217689
2.88698e-05
-0.000244249
2.65599e-05
-0.000267119
2.28695e-05
-0.000284489
1.73698e-05
-0.000294137
9.64802e-06
-0.000293544
-5.92865e-07
-0.000280145
-1.33989e-05
-0.000251941
-2.82042e-05
-0.000208303
-4.36381e-05
-0.000151247
-5.70561e-05
-8.70801e-05
-6.41664e-05
-2.84004e-05
-5.86797e-05
-2.84004e-05
-2.63778e-05
3.74453e-05
-7.45901e-05
7.30071e-05
-0.00013053
8.56517e-05
-0.000188266
8.87582e-05
-0.000245491
8.83782e-05
-0.000301068
8.64519e-05
-0.000353974
8.3101e-05
-0.000402915
7.78115e-05
-0.000446177
6.98211e-05
-0.000481534
5.82269e-05
-0.000506215
4.20511e-05
-0.000516918
2.03504e-05
-0.000510288
-7.22292e-06
-0.000482609
-4.10779e-05
-0.00043133
-7.94829e-05
-0.000355936
-0.000119032
-0.000259793
-0.000153199
-0.000152723
-0.000171237
-5.3811e-05
-0.000157592
-8.22114e-05
-3.31698e-05
7.06151e-05
-9.20209e-05
0.000131858
-0.000159536
0.000153167
-0.000228705
0.000157927
-0.000296843
0.000156517
-0.000362628
0.000152236
-0.000424892
0.000145365
-0.000482219
0.000135139
-0.000532767
0.000120369
-0.000574145
9.96053e-05
-0.000603358
7.12633e-05
-0.000616861
3.38541e-05
-0.000610306
-1.37784e-05
-0.000579267
-7.21169e-05
-0.0005201
-0.000138649
-0.000431306
-0.000207826
-0.00031606
-0.000268445
-0.000185937
-0.000301359
-6.49283e-05
-0.000278601
-0.00014714
-3.57539e-05
0.000106369
-9.92633e-05
0.000195368
-0.000171904
0.000225808
-0.00024621
0.000232233
-0.000319487
0.000229793
-0.000390517
0.000223267
-0.000458282
0.00021313
-0.000521532
0.000198389
-0.000578587
0.000177424
-0.00062715
0.000148168
-0.000664118
0.000108232
-0.000685474
5.52107e-05
-0.000686273
-1.29799e-05
-0.00066019
-9.81999e-05
-0.00060124
-0.0001976
-0.000505216
-0.00030385
-0.000373551
-0.000400111
-0.000219626
-0.000455284
-7.4465e-05
-0.000423762
-0.000221605
-3.66973e-05
0.000143066
-0.000102593
0.000261263
-0.000178109
0.000301324
-0.000255557
0.000309681
-0.000332372
0.000306608
-0.000407604
0.000298498
-0.000480564
0.00028609
-0.000550376
0.000268201
-0.000615728
0.000242777
-0.000674614
0.000207053
-0.000723978
0.000157596
-0.000759275
9.05072e-05
-0.000774741
2.48598e-06
-0.000761223
-0.000111718
-0.000709112
-0.00024971
-0.000609184
-0.000403778
-0.000458393
-0.000550902
-0.000270447
-0.000643229
-8.81591e-05
-0.00060605
-0.000309764
-3.71529e-05
0.000180219
-0.000104789
0.0003289
-0.000182624
0.000379159
-0.000262792
0.000389849
-0.000342926
0.000386742
-0.000422445
0.000378018
-0.000501146
0.00036479
-0.000578725
0.00034578
-0.000654506
0.000318558
-0.000727092
0.00027964
-0.000793862
0.000224365
-0.000850244
0.00014689
-0.000888577
4.08191e-05
-0.000898405
-0.00010189
-0.000863702
-0.000284413
-0.000767018
-0.000500462
-0.000595377
-0.000722543
-0.000356829
-0.000881778
-0.000112214
-0.000850665
-0.000421978
-3.74867e-05
0.000217706
-0.000106762
0.000398175
-0.000186832
0.000459229
-0.000269632
0.000472649
-0.000353019
0.000470129
-0.000436873
0.000461872
-0.000521623
0.000449541
-0.000607782
0.000431938
-0.000695659
0.000406435
-0.000784969
0.00036895
-0.000874179
0.000313575
-0.000959438
0.000232149
-0.00103289
0.000114275
-0.00108218
-5.25998e-05
-0.00108505
-0.000281547
-0.0010116
-0.000573911
-0.000827744
-0.000906399
-0.000517554
-0.00119197
-0.000163192
-0.00120503
-0.000585169
-3.77697e-05
0.000255475
-0.000108697
0.000469102
-0.000190936
0.000541468
-0.000276142
0.000557855
-0.000362399
0.000556386
-0.000450113
0.000549586
-0.000540491
0.000539919
-0.00063511
0.000526557
-0.000735696
0.000507021
-0.000843784
0.000477038
-0.000960035
0.000429826
-0.00108304
0.000355149
-0.00120714
0.000238374
-0.00132089
6.11572e-05
-0.00139941
-0.000203032
-0.00139659
-0.00057673
-0.00123512
-0.00106787
-0.00083188
-0.00159521
-0.000283451
-0.00175346
-0.000868621
-3.80404e-05
0.000293516
-0.000110663
0.000541725
-0.000194898
0.000625703
-0.000281996
0.000644953
-0.000370245
0.000644635
-0.000460597
0.000639938
-0.000555117
0.000634439
-0.000656652
0.000628092
-0.000768791
0.00061916
-0.000895731
0.000603978
-0.00104187
0.000575969
-0.00121089
0.000524167
-0.00140393
0.000431408
-0.00161576
0.000272989
-0.00183492
1.61295e-05
-0.00198711
-0.000424535
-0.00191222
-0.00114277
-0.0013947
-0.00211272
-0.000540225
-0.00260793
-0.00140885
-3.84379e-05
0.000331954
-0.00011291
0.000616197
-0.000198888
0.000711681
-0.000287059
0.000733124
-0.000375861
0.000733437
-0.000466758
0.000730836
-0.000562654
0.000730334
-0.000667695
0.000733134
-0.00078753
0.000738996
-0.000929702
0.00074615
-0.00110406
0.000750327
-0.00132307
0.000743178
-0.00160194
0.000710276
-0.00195622
0.000627271
-0.00237436
0.000434266
-0.00276461
-3.42878e-05
-0.002812
-0.00109537
-0.00216464
-0.00276009
-0.000976829
-0.00379573
-0.00238567
-3.93041e-05
0.000371258
-0.000116082
0.000692975
-0.000203576
0.000799175
-0.000291753
0.0008213
-0.000379125
0.000820809
-0.000467583
0.000819294
-0.000560691
0.000823442
-0.00066365
0.000836092
-0.000783918
0.000859264
-0.000932301
0.000894532
-0.00112468
0.000942701
-0.00138471
0.00100321
-0.00174651
0.00107208
-0.00224715
0.00112791
-0.00287334
0.00106046
-0.00343024
0.000522609
-0.00353694
-0.000988666
-0.00285922
-0.00343781
-0.00155693
-0.00509803
-0.0039426
-4.1346e-05
0.000412604
-0.000121501
0.00077313
-0.000210438
0.000888112
-0.000297368
0.00090823
-0.000380896
0.000904337
-0.000463212
0.000901609
-0.000548202
0.000908433
-0.000641493
0.000929382
-0.000751426
0.000969197
-0.00089076
0.00103387
-0.00107952
0.00113146
-0.00134912
0.00127281
-0.00174341
0.00146638
-0.00229446
0.00167896
-0.00295363
0.00171962
-0.00348227
0.00105125
-0.00356858
-0.000902359
-0.00307151
-0.00393488
-0.00194625
-0.00622329
-0.00588885
-4.56272e-05
0.000458231
-0.00013112
0.000858623
-0.000221872
0.000978863
-0.000306447
0.000992805
-0.000383536
0.000981427
-0.000455522
0.000973595
-0.000526277
0.000979188
-0.000600739
0.00100384
-0.000686178
0.00105464
-0.000793888
0.00114158
-0.00094164
0.00127921
-0.00115561
0.00148677
-0.00146832
0.00177909
-0.00188633
0.00209697
-0.00234196
0.00217526
-0.00267211
0.00138139
-0.00277553
-0.000798937
-0.00260418
-0.00410623
-0.00181433
-0.00701314
-0.00770318
-5.54967e-05
0.000513728
-0.000150086
0.000953213
-0.000242309
0.00107109
-0.000321884
0.00107238
-0.000389378
0.00104892
-0.000447495
0.00103171
-0.000498797
0.00103049
-0.000546492
0.00105154
-0.000594716
0.00110286
-0.000649286
0.00119615
-0.000718707
0.00134863
-0.000811701
0.00157977
-0.000935735
0.00190312
-0.00107524
0.00223648
-0.00120818
0.0023082
-0.00129722
0.00147043
-0.00141054
-0.000685617
-0.00158351
-0.00393326
-0.00129206
-0.00730459
-0.00899524
-6.77539e-05
0.000581482
-0.000175056
0.00106052
-0.000272928
0.00116896
-0.000351628
0.00115108
-0.000409614
0.00110691
-0.000450553
0.00107265
-0.000477249
0.00105719
-0.000491206
0.0010655
-0.000492635
0.00110429
-0.000480313
0.00118382
-0.000451605
0.00131993
-0.000396937
0.0015251
-0.000302041
0.00180822
-0.000153367
0.00208781
2.125e-05
0.00213358
0.000107486
0.00138419
-4.71145e-06
-0.000573419
-0.000545489
-0.00339248
-0.000763142
-0.00708693
-0.00975838
-0.000135188
0.00071667
-0.000257134
0.00118246
-0.000340961
0.00125278
-0.000395204
0.00120532
-0.000430573
0.00114228
-0.000450737
0.00109281
-0.000454711
0.00106116
-0.000439043
0.00104983
-0.00039859
0.00106384
-0.000324954
0.00111019
-0.000206724
0.0012017
-2.43303e-05
0.00134271
0.000240971
0.00154292
0.000597022
0.00173175
0.000984992
0.00174561
0.00120215
0.00116704
0.00101782
-0.00038909
0.000237569
-0.00261223
-0.00030921
-0.00654016
-0.0100676
-8.77107e-05
0.00080438
-0.000274208
0.00136896
-0.000399083
0.00137766
-0.000470184
0.00127642
-0.000502258
0.00117435
-0.000505329
0.00109589
-0.000482324
0.00103816
-0.000431334
0.000998838
-0.00034693
0.000979433
-0.000217198
0.000980456
-2.68125e-05
0.00101131
0.000240833
0.00107506
0.000608261
0.00117549
0.00107523
0.00126478
0.00156379
0.00125705
0.00184993
0.000880896
0.00162889
-0.000168042
0.000828392
-0.00181174
0.000160515
-0.00587228
-0.00990708
-0.000382738
0.00118712
-0.000450387
0.00143661
-0.000512972
0.00144025
-0.000565887
0.00132934
-0.000572349
0.00118081
-0.000538382
0.00106192
-0.000468434
0.000968207
-0.00036149
0.000891893
-0.000218433
0.000836376
-3.08187e-05
0.000792841
0.000208126
0.000772366
0.000514926
0.000768262
0.000898479
0.000791942
0.00134635
0.00081691
0.00181627
0.000787132
0.00211579
0.000581371
0.00211566
-0.000167911
0.00167411
-0.00137018
0.000907575
-0.00510575
-0.0089995
-0.00136149
0.00254861
-0.0013271
0.00140222
-0.00107451
0.00118766
-0.000710471
0.000965297
-0.000325116
0.000795457
6.45247e-05
0.000672279
0.00044663
0.000586102
0.000820263
0.00051826
0.0011869
0.000469742
0.00155086
0.000428878
0.00192178
0.00040145
0.00230693
0.000383105
0.00272994
0.000368938
0.00318979
0.000357057
0.00368668
0.000290242
0.00410576
0.000162294
0.00423546
-0.000297616
0.00404501
-0.00117972
0.00255534
-0.00361608
-0.00644417
0.00254861
0.00395083
0.00513848
0.00610378
0.00689924
0.00757152
0.00815762
0.00867588
0.00914562
0.0095745
0.00997595
0.0103591
0.010728
0.011085
0.0113753
0.0115376
0.01124
0.0100602
0.00644417
)
;

boundaryField
{
    movingWall
    {
        type            calculated;
        value           uniform 0;
    }
    fixedWalls
    {
        type            calculated;
        value           uniform 0;
    }
    frontAndBack
    {
        type            empty;
        value           nonuniform List<scalar> 0();
    }
}


// ************************************************************************* //
