/*--------------------------------*- C++ -*----------------------------------*\
  =========                 |
  \\      /  F ield         | OpenFOAM: The Open Source CFD Toolbox
   \\    /   O peration     | Website:  https://openfoam.org
    \\  /    A nd           | Version:  10
     \\/     M anipulation  |
\*---------------------------------------------------------------------------*/
FoamFile
{
    format      ascii;
    class       surfaceScalarField;
    location    "5.775";
    object      phi;
}
// * * * * * * * * * * * * * * * * * * * * * * * * * * * * * * * * * * * * * //

dimensions      [0 3 -1 0 0 0 0];

internalField   nonuniform List<scalar> 
928
(
0.0956051
0.00439495
0.103896
-0.00829122
0.106692
-0.00279615
-0.0101234
0.116816
0.0946881
0.00970683
0.105951
-0.0195544
0.102913
0.000242037
-0.0201969
0.112987
0.0960336
0.0136732
0.109327
-0.0328477
0.104526
0.00504308
-0.0414077
0.125737
0.103122
0.0105516
0.0927215
-0.0224476
0.09816
-0.000395349
0.146856
-0.0901034
0.111613
0.00520309
-0.0165306
0.128143
0.109611
0.00857913
-0.0419189
0.134999
0.127765
0.0065506
-0.0478248
0.133671
0.153406
0.105582
0.127927
0.000216241
0.127878
4.88973e-05
0.129493
-0.00161472
-0.00125539
0.130748
0.136004
-0.0007886
0.135582
0.000470892
0.135826
-0.00185883
-0.00209062
0.136661
0.135926
-0.00304328
0.138068
-0.00167165
0.14161
-0.00540098
-0.000729433
0.140249
0.111807
-0.00926846
0.0916031
0.018532
0.0909877
-0.00478557
0.0969476
-0.00668937
0.132059
-0.0013107
0.13218
-0.000120877
0.13198
0.000199382
0.131464
0.000516375
0.130789
0.000674884
0.130366
0.000423466
0.129212
0.00115363
0.128694
0.000518146
0.127675
0.00101892
0.127088
0.000587552
0.125596
0.00149189
0.123871
0.00172447
0.122069
0.00180256
0.11969
0.00237886
0.118125
0.00156477
0.11611
0.0020146
0.115187
0.000923674
0.114283
0.000903853
0.114127
0.000155684
0.11407
5.68099e-05
0.114146
-7.57038e-05
0.114558
-0.000411697
0.114249
0.000308914
0.11391
0.000338641
0.112229
0.00168123
0.110482
0.00174706
0.107785
0.00269646
0.105356
0.00242948
0.10309
0.00226573
0.101296
0.00179461
0.100595
0.000701089
0.0998656
0.000728961
0.100329
-0.000463477
0.10019
0.000139335
0.100294
-0.000104364
0.09992
0.000374049
0.0991124
0.000807602
0.0982661
0.000846333
0.097221
0.00104514
0.000634389
0.137368
-0.00201789
0.137268
-2.08982e-05
0.13763
-0.000162583
0.138274
-0.000126838
0.138395
0.000553374
0.138292
0.000526958
0.13755
0.00189484
0.138176
-0.000107312
0.137298
0.00189654
0.136953
0.000932703
0.135383
0.00306181
0.134358
0.00274995
0.133123
0.00303689
0.131402
0.00410049
0.130209
0.00275742
0.128045
0.00417869
0.127617
0.00135178
0.126288
0.00223301
0.126237
0.000206485
0.126739
-0.000445815
0.127033
-0.000369393
0.128459
-0.001838
0.128104
0.000664256
0.128792
-0.00034883
0.127466
0.00300657
0.126519
0.00269426
0.124477
0.00473851
0.122445
0.00446116
0.120899
0.00381185
0.118763
0.00393043
0.118341
0.00112324
0.117557
0.00151302
0.118075
-0.000981529
0.118355
-0.000140651
0.118886
-0.000634929
0.119085
0.000174877
0.118727
0.00116523
0.118719
0.000854647
0.117991
0.0017727
0.000867379
0.137125
0.00110666
0.134692
0.00241175
0.137325
-0.00279571
0.137642
-0.000443955
0.136776
0.00141974
0.13753
-0.000227368
0.138594
0.000830885
0.137858
0.000629294
0.137221
0.00253286
0.136577
0.00157689
0.136619
0.00302023
0.137203
0.00216575
0.136386
0.00385424
0.135942
0.00454443
0.134252
0.00444739
0.133573
0.00485736
0.131956
0.00296895
0.131504
0.00268501
0.130863
0.000846931
0.130458
-4.08354e-05
0.131189
-0.00109977
0.131509
-0.00215829
0.132488
-0.000314296
0.133947
-0.00180819
0.134781
0.00217208
0.134918
0.002558
0.134195
0.00546104
0.132992
0.00566405
0.131278
0.00552593
0.130258
0.00495099
0.12898
0.00240036
0.128246
0.00224799
0.127833
-0.000569445
0.126986
0.00070728
0.127153
-0.000802811
0.12661
0.000718475
0.12658
0.00119459
0.126596
0.000839142
0.126186
0.00218303
0.00122317
0.0951501
0.0029042
0.0876817
0.00988013
0.094656
-0.00977003
0.0919378
0.00227422
0.0863488
0.00700875
0.0911685
-0.00504706
0.0890395
0.00295993
0.0881798
0.00148897
0.090183
0.000529648
0.0900111
0.00174876
0.0926955
0.000335856
0.0946636
0.000197614
0.0967142
0.00180373
0.0983036
0.00295504
0.098988
0.00376292
0.09855
0.00529539
0.0963529
0.00516607
0.094362
0.00467587
0.0924262
0.00278275
0.0917156
0.000669726
0.091734
-0.00111809
0.0922182
-0.0026425
0.0956653
-0.00376139
0.0991883
-0.00533122
0.103695
-0.00233445
0.107746
-0.00149298
0.11275
0.000457297
0.115109
0.00330461
0.11602
0.00461493
0.114722
0.00624933
0.110557
0.00656498
0.105986
0.00681864
0.1001
0.00531713
0.0962463
0.00456077
0.0928223
0.00262121
0.0903511
0.00318967
0.0896199
0.00192581
0.0878512
0.00260776
0.086282
0.00375229
0.00102313
0.1111
-0.000548724
0.0887308
-7.81373e-05
0.089781
-0.00144556
-0.000322394
0.109363
-0.00991151
0.0878836
0.021401
0.0864759
-3.77748e-05
0.0861535
-0.00436164
-0.00490682
-0.0287402
0.0429106
-0.0193671
-0.0141587
-0.0402782
0.0142217
-0.00846688
0.00356006
0.0177847
0.016659
0.0168692
-0.0132431
-0.01789
-0.00551897
0.000546865
0.016579
-0.0054576
0.0158846
-0.00178876
-0.0134389
0.00670068
-0.00621522
-0.00683574
0.0205452
-0.00821378
-0.00366902
0.0028557
-0.00810954
0.00587053
-0.00152587
0.00521355
0.00118663
0.00582279
0.00113952
0.00750104
-0.00134239
0.010562
-0.0028633
0.0141336
-0.00176786
0.0166966
0.000391944
0.018079
0.00238055
0.019661
0.0037134
0.0218552
0.00297193
0.0227467
0.00378435
0.0240697
0.00145975
0.0258003
-0.00106093
0.0280383
-0.00335603
0.0309779
-0.00558209
0.0330601
-0.00584358
0.0352919
-0.00756305
0.0382783
-0.00532085
0.0396274
-0.00284208
0.0406359
-0.000551269
0.040856
0.00308458
0.0396596
0.00581133
0.0391815
0.00672739
0.0375592
0.00818728
0.0372987
0.00707917
0.0383073
0.00430854
0.0383954
0.00447264
0.0405932
0.000423385
0.0424845
0.00129839
0.0444362
-2.58391e-05
0.0470681
-2.41873e-05
0.0492783
0.00154216
-0.00126986
-0.010253
0.00894202
0.00807786
-0.00244631
-0.00528746
-7.35539e-05
-0.00951715
-0.00198553
0.00515547
0.00587254
0.00422436
-0.0027379
0.00157843
-0.00546362
0.00163322
-0.00158066
0.003672
-0.000852151
0.00943649
-0.00462496
0.0125072
-0.00441312
0.0132467
-0.00360279
0.0149345
-0.00345567
0.0169507
-0.00162421
0.0197013
-0.000370057
0.0232755
0.000139205
0.0260275
0.000219892
0.0293163
0.000495592
0.0317573
-0.000981289
0.0333543
-0.00265792
0.0332012
-0.00320297
0.0335993
-0.00598015
0.0334913
-0.00573555
0.0315058
-0.00557759
0.0315104
-0.00532542
0.0319727
-0.00330434
0.0321927
-0.00077129
0.0335335
0.00174372
0.0358724
0.00347246
0.0380399
0.00455991
0.041224
0.0050032
0.0447412
0.00356193
0.0477406
0.00130914
0.0518997
0.000313495
0.0543187
-0.00199553
0.0576529
-0.0020358
0.061085
-0.00345802
0.0638237
-0.00276283
0.0676097
-0.00224382
-0.00315476
0.10309
-0.0130019
0.0943943
0.0300971
0.0986459
-0.0042894
0.0391793
0.14562
0.0956044
-0.00860621
0.107894
0.0178073
0.103213
0.000391754
0.0190406
0.123352
0.0949929
-0.0035991
0.105937
0.00686282
0.102645
0.00368404
0.00927832
0.112407
0.0964009
0.103264
0.106948
0.116226
0.153536
-0.00791578
0.0455582
0.107978
0.124251
-0.00881519
0.0418834
0.127926
0.10866
-0.00506779
0.0167528
0.13379
0.111158
0.127911
0.106436
0.00510196
0.114916
0.0081782
0.102475
-0.000801496
-0.000723394
0.0976793
0.132673
0.000355164
0.138608
0.00224282
0.134922
0.00288489
0.00218795
0.13201
0.134099
4.66032e-05
0.135109
0.00123303
0.136745
0.00124913
0.001727
0.137206
0.127958
0.129191
0.13044
0.132167
0.105404
0.00121726
0.10191
0.00104754
0.101492
0.000344955
0.0988445
0.000661596
0.104392
0.000324955
0.102806
-0.00115168
0.100557
-0.00321472
0.102286
-0.0033096
0.10357
-0.00213621
0.102055
-0.00311035
0.100252
-0.00260934
0.099172
-0.00252321
0.0977645
-0.00204817
0.0971711
-0.00103083
0.0978607
-0.00105966
0.0980496
-4.96521e-05
0.100283
-0.00201306
0.102499
-0.00172093
0.105483
-0.00396543
0.107058
-0.0042328
0.108349
-0.0044936
0.107014
-0.0046458
0.104122
-0.00284318
0.101279
-0.00273423
0.0953643
0.00058889
0.0919629
9.71309e-05
0.0879795
0.00321212
0.0869761
0.00274709
0.0874613
0.00298726
0.0895368
0.0024844
0.0937431
0.000796904
0.0973988
-9.37634e-05
0.102454
-0.00374581
0.106405
-0.00363812
0.110979
-0.00656869
0.114005
-0.00506229
0.116891
-0.00634356
0.119576
-0.00544797
0.122341
-0.00500912
-0.00513099
0.133179
4.89564e-05
0.133457
0.000768929
0.133958
-0.000155706
0.134408
0.000211734
0.135272
-0.000539618
0.134952
-0.000831529
0.132903
-0.00116596
0.132561
-0.00296674
0.132084
-0.00165992
0.131966
-0.00299232
0.13083
-0.00147333
0.1303
-0.00199266
0.129696
-0.00144476
0.129497
-0.000831293
0.130475
-0.00203808
0.130473
-4.78262e-05
0.131173
-0.00271256
0.131075
-0.00162287
0.130851
-0.00374164
0.129716
-0.00309781
0.128747
-0.00352484
0.128034
-0.00393208
0.126687
-0.00149681
0.126053
-0.00210006
0.125252
0.00138968
0.124283
0.00106611
0.124571
0.00292405
0.124986
0.00233212
0.12594
0.00203342
0.126963
0.0014612
0.128636
-0.00087544
0.130056
-0.0015139
0.130632
-0.0043219
0.131087
-0.00409299
0.130068
-0.00555035
0.129526
-0.00451974
0.127575
-0.00439228
0.125735
-0.00360863
0.123321
-0.00259485
-0.00246162
0.13678
0.000474434
0.136985
0.000563955
0.137455
-0.000625815
0.137923
-0.000256257
0.137917
-0.000533576
0.137762
-0.000676329
0.137127
-0.000531079
0.135655
-0.0014949
0.134892
-0.000896799
0.133629
-0.0017289
0.133162
-0.00100624
0.132278
-0.001109
0.131733
-0.000899964
0.131474
-0.000572494
0.130693
-0.00125689
0.131144
-0.000498585
0.130166
-0.0017352
0.1297
-0.00115627
0.128124
-0.00216529
0.126914
-0.00188844
0.125297
-0.0019079
0.123326
-0.0019611
0.122756
-0.000926511
0.121666
-0.00100968
0.122399
0.000656246
0.123026
0.000438983
0.124457
0.00149295
0.125861
0.00092835
0.127026
0.000868046
0.128349
0.000138887
0.128156
-0.000682526
0.128065
-0.00142341
0.126086
-0.0023431
0.124662
-0.00266884
0.122116
-0.003004
0.120157
-0.0025608
0.118138
-0.00237299
0.11626
-0.0017308
0.115286
-0.00162063
-0.00125258
0.132641
0.133205
0.132579
0.132323
0.13179
0.131113
0.130582
0.129087
0.12819
0.126462
0.125455
0.124346
0.123446
0.122874
0.121617
0.121118
0.119383
0.118227
0.116062
0.114173
0.112265
0.110304
0.109378
0.108368
0.109024
0.109463
0.110956
0.111885
0.112753
0.112891
0.112209
0.110786
0.108442
0.105774
0.10277
0.100209
0.0978358
0.096105
0.0944844
)
;

boundaryField
{
    inlet
    {
        type            calculated;
        value           nonuniform List<scalar> 10(-0.1 -0.1 -0.1 -0.1 -0.1 -0.1 -0.1 -0.1 -0.1 -0.1);
    }
    outlet
    {
        type            calculated;
        value           nonuniform List<scalar> 10(0.0965866 0.117758 0.12583 0.086482 0.0515712 0.0694946 0.124317 0.120652 0.114077 0.0932318);
    }
    obstacle
    {
        type            calculated;
        value           uniform 0;
    }
    upperWall
    {
        type            calculated;
        value           uniform 0;
    }
    lowerWall
    {
        type            calculated;
        value           uniform 0;
    }
    frontAndBack
    {
        type            empty;
        value           nonuniform List<scalar> 0();
    }
}


// ************************************************************************* //
