/*--------------------------------*- C++ -*----------------------------------*\
  =========                 |
  \\      /  F ield         | OpenFOAM: The Open Source CFD Toolbox
   \\    /   O peration     | Website:  https://openfoam.org
    \\  /    A nd           | Version:  10
     \\/     M anipulation  |
\*---------------------------------------------------------------------------*/
FoamFile
{
    format      ascii;
    class       volVectorField;
    location    "8.975";
    object      U;
}
// * * * * * * * * * * * * * * * * * * * * * * * * * * * * * * * * * * * * * //

dimensions      [0 1 -1 0 0 0 0];

internalField   nonuniform List<vector> 
8000
(
(-8.17129e-05 0.000112614 -4.40898e-05)
(-0.000565774 0.000233691 -7.12325e-06)
(-0.00136519 0.00027197 1.10333e-05)
(-0.00219152 0.00028944 2.0584e-05)
(-0.00306574 0.000305042 2.11805e-05)
(-0.00396744 0.000324106 1.58569e-05)
(-0.00488943 0.000345748 5.69766e-06)
(-0.00581894 0.000366729 -1.01074e-05)
(-0.00673122 0.000382566 -3.33454e-05)
(-0.00758639 0.000387637 -6.63286e-05)
(-0.00832612 0.00037523 -0.000111577)
(-0.00887207 0.000338225 -0.000171269)
(-0.00912871 0.000271174 -0.000246199)
(-0.00899302 0.000172739 -0.000334326)
(-0.00837429 4.60124e-05 -0.000429022)
(-0.00722184 -9.62459e-05 -0.000514713)
(-0.00557504 -0.000221 -0.000570404)
(-0.00363457 -0.000284707 -0.000571387)
(-0.00152653 -0.000246509 -0.000499564)
(-0.000212239 -2.52584e-05 -0.000260532)
(-0.000199305 0.000731932 -0.000133834)
(-0.00106423 0.00126884 -0.000120662)
(-0.00239283 0.00145176 -0.000110853)
(-0.0037669 0.00153238 -0.000102735)
(-0.00521006 0.00158872 -0.000101476)
(-0.00668491 0.00164334 -0.000105247)
(-0.00817306 0.00169492 -0.000113573)
(-0.0096494 0.00173217 -0.000127783)
(-0.0110725 0.00173838 -0.00015023)
(-0.0123797 0.00169257 -0.00018405)
(-0.0134829 0.00157063 -0.000232877)
(-0.0142656 0.00134795 -0.000300159)
(-0.0145879 0.00100458 -0.000387604)
(-0.0143034 0.00053474 -0.000493222)
(-0.0132856 -3.72805e-05 -0.000613203)
(-0.0114576 -0.000647489 -0.000720435)
(-0.00887467 -0.00117468 -0.000787209)
(-0.00583102 -0.00145251 -0.000778295)
(-0.00251945 -0.00131915 -0.000663217)
(-0.000395127 -0.000482096 -0.000300712)
(-0.000236074 0.00176317 -0.000184189)
(-0.00123946 0.00290507 -0.000184471)
(-0.00276483 0.00329924 -0.000179273)
(-0.00433342 0.0034657 -0.000171152)
(-0.00597575 0.00356774 -0.000168338)
(-0.00765042 0.00365284 -0.0001698)
(-0.00933852 0.00372117 -0.000175517)
(-0.0110148 0.00375289 -0.000187294)
(-0.0126371 0.0037169 -0.000208141)
(-0.0141403 0.00357325 -0.000242254)
(-0.0154304 0.00327586 -0.000294745)
(-0.0163811 0.00277748 -0.000370926)
(-0.0168342 0.00203985 -0.000474809)
(-0.0166074 0.00105213 -0.000606755)
(-0.0155269 -0.000140781 -0.000758245)
(-0.0134716 -0.00141079 -0.000899776)
(-0.0104715 -0.0025276 -0.000991327)
(-0.0068686 -0.00314285 -0.000981186)
(-0.00289606 -0.00290985 -0.000826436)
(-0.000404855 -0.00124145 -0.000355313)
(-0.000239362 0.00285387 -0.000219513)
(-0.00127926 0.0046414 -0.000231181)
(-0.00286493 0.00525252 -0.000229843)
(-0.0044917 0.0055024 -0.00022209)
(-0.00619886 0.00564936 -0.000218704)
(-0.00794731 0.00576859 -0.000219375)
(-0.00972417 0.00586353 -0.000224567)
(-0.0115116 0.00590786 -0.000236657)
(-0.0132755 0.00585809 -0.00025949)
(-0.0149583 0.00565626 -0.000298627)
(-0.0164697 0.00523248 -0.000361387)
(-0.0176777 0.00451173 -0.000456064)
(-0.0184023 0.00342857 -0.000589949)
(-0.0184194 0.00195359 -0.000766349)
(-0.0174853 0.000131359 -0.000977893)
(-0.0153908 -0.00185873 -0.00119045)
(-0.0120798 -0.00367322 -0.00133743)
(-0.00792209 -0.00473232 -0.00133851)
(-0.00319019 -0.00443804 -0.00112432)
(-0.000334252 -0.00183382 -0.000473938)
(-0.000226466 0.00399764 -0.000243212)
(-0.00125416 0.00647049 -0.000264497)
(-0.0028386 0.0073119 -0.000266342)
(-0.00446688 0.00765292 -0.000259417)
(-0.00618615 0.00785553 -0.000256844)
(-0.00796272 0.00802688 -0.000259079)
(-0.00979378 0.00817708 -0.000267204)
(-0.0116741 0.00827671 -0.000284411)
(-0.0135847 0.00827319 -0.000315777)
(-0.0154837 0.00809282 -0.000368828)
(-0.0172929 0.007641 -0.000454102)
(-0.0188817 0.00680763 -0.00058485)
(-0.0200504 0.00548327 -0.0007746)
(-0.0205189 0.00359087 -0.00103152)
(-0.0199366 0.00114441 -0.00134767)
(-0.0179567 -0.00166161 -0.00169484)
(-0.0143584 -0.00435721 -0.00196042)
(-0.00948957 -0.00607491 -0.00200589)
(-0.00363019 -0.00583499 -0.00169508)
(-0.000213436 -0.00218331 -0.000706249)
(-0.000204952 0.00514971 -0.000260523)
(-0.00119421 0.00833178 -0.000290475)
(-0.00274456 0.00941542 -0.000295239)
(-0.00434402 0.00985801 -0.000289613)
(-0.00604582 0.0101328 -0.000288957)
(-0.00782309 0.0103843 -0.000294635)
(-0.00968563 0.0106347 -0.000308541)
(-0.0116449 0.0108571 -0.000334997)
(-0.0137031 0.0109957 -0.000380816)
(-0.0158435 0.0109669 -0.000456347)
(-0.0180129 0.0106545 -0.000576816)
(-0.0200965 0.00990928 -0.000763231)
(-0.0218872 0.00856036 -0.00104045)
(-0.0230539 0.00644987 -0.00142839)
(-0.0231264 0.00350294 -0.00192795)
(-0.0215458 -0.000142541 -0.00252631)
(-0.0177958 -0.00390876 -0.00304997)
(-0.0120704 -0.00665423 -0.00324039)
(-0.00449398 -0.00677925 -0.00279059)
(-7.96974e-05 -0.00208344 -0.00114487)
(-0.000177193 0.00628709 -0.000275671)
(-0.00110999 0.010194 -0.000314221)
(-0.00260252 0.0115304 -0.000321777)
(-0.00414754 0.0120844 -0.000317446)
(-0.00580241 0.012448 -0.000318915)
(-0.00754683 0.0128101 -0.000328685)
(-0.00940409 0.0132117 -0.000349742)
(-0.0114052 0.0136371 -0.000387905)
(-0.0135792 0.0140382 -0.000452285)
(-0.0159441 0.014333 -0.000557136)
(-0.0184895 0.0143963 -0.000724503)
(-0.0211443 0.0140495 -0.000987287)
(-0.0237281 0.0130576 -0.00139019)
(-0.0258922 0.0111522 -0.00198257)
(-0.0270597 0.00810426 -0.00279902)
(-0.0263911 0.00386571 -0.00380888)
(-0.0229667 -0.00113616 -0.00486855)
(-0.016511 -0.00549172 -0.00545791)
(-0.00650561 -0.00673386 -0.00487533)
(-0.000153843 -0.00142058 -0.00201827)
(-0.000143887 0.00739594 -0.000290967)
(-0.00100544 0.0120386 -0.000338534)
(-0.00241877 0.0136341 -0.000348511)
(-0.00388103 0.0143031 -0.000344687)
(-0.00545141 0.0147648 -0.00034736)
(-0.00711427 0.0152603 -0.000360421)
(-0.00890491 0.0158579 -0.000388189)
(-0.0108735 0.0165644 -0.000438308)
(-0.0130785 0.0173546 -0.000522765)
(-0.0155808 0.01817 -0.000660668)
(-0.0184288 0.018905 -0.000882803)
(-0.0216282 0.0193856 -0.00123819)
(-0.0250851 0.0193471 -0.00180045)
(-0.0285168 0.0184222 -0.0026656)
(-0.0313497 0.0161671 -0.00392424)
(-0.0325903 0.0121399 -0.00559474)
(-0.0306699 0.00613473 -0.00750583)
(-0.0242797 -0.000862148 -0.00898826)
(-0.0114555 -0.00488607 -0.00848126)
(-0.00119292 -0.000311942 -0.00384871)
(-0.000106579 0.00846771 -0.000308037)
(-0.000886444 0.0138531 -0.000365302)
(-0.0022018 0.0157056 -0.000376932)
(-0.00354976 0.0164805 -0.000371915)
(-0.0049888 0.0170331 -0.000373619)
(-0.00650425 0.0176656 -0.000387565)
(-0.00813928 0.0184833 -0.000419581)
(-0.0099586 0.019527 -0.000479229)
(-0.0120447 0.020813 -0.000581404)
(-0.0144987 0.0223353 -0.00075019)
(-0.0174356 0.0240529 -0.00102553)
(-0.0209655 0.025865 -0.00147313)
(-0.0251519 0.0275726 -0.00219497)
(-0.0299295 0.0288026 -0.00333161)
(-0.0349648 0.0288716 -0.00504131)
(-0.0393884 0.0265469 -0.00742659)
(-0.0412177 0.0199009 -0.0103503)
(-0.0370986 0.00842687 -0.0131585)
(-0.0223816 -0.00185837 -0.0133034)
(-0.00488929 0.000154352 -0.0074684)
(-6.92523e-05 0.00950235 -0.000328869)
(-0.000766574 0.0156347 -0.000396653)
(-0.00197254 0.0177283 -0.000408772)
(-0.00317487 0.0185795 -0.000399928)
(-0.00442962 0.0191897 -0.000397194)
(-0.0057179 0.0199318 -0.000407954)
(-0.00708383 0.0209551 -0.000439589)
(-0.00859653 0.0223455 -0.000503325)
(-0.0103483 0.0241779 -0.00061614)
(-0.012462 0.0265286 -0.000804943)
(-0.0150969 0.029471 -0.00111336)
(-0.0184535 0.0330605 -0.00160942)
(-0.0227873 0.0372851 -0.00238361)
(-0.0284157 0.0418555 -0.00352569)
(-0.0356766 0.0457144 -0.00511046)
(-0.0446004 0.0460961 -0.00727677)
(-0.0529354 0.0378867 -0.0104604)
(-0.0546233 0.0179979 -0.014369)
(-0.0407674 -0.00357884 -0.015412)
(-0.012503 -0.00415873 -0.0121205)
(-4.00147e-05 0.0105161 -0.000356712)
(-0.000672202 0.0173982 -0.000435863)
(-0.00177236 0.0196955 -0.000446774)
(-0.002804 0.020564 -0.00043052)
(-0.00382173 0.0211631 -0.000418523)
(-0.00479685 0.0219444 -0.000420503)
(-0.00576693 0.0231041 -0.000445149)
(-0.00678999 0.0247762 -0.000504516)
(-0.00794356 0.0271026 -0.000615602)
(-0.00933617 0.0302591 -0.000802733)
(-0.0111225 0.0344658 -0.0010991)
(-0.013533 0.0399847 -0.00153822)
(-0.0170007 0.0470294 -0.00209581)
(-0.0223471 0.0552655 -0.00257349)
(-0.0309415 0.0627564 -0.00270922)
(-0.0444909 0.0640694 -0.00265397)
(-0.0619405 0.0503836 -0.00420084)
(-0.0737722 0.0163469 -0.00667932)
(-0.0613403 -0.0207357 -0.00673389)
(-0.02079 -0.0235189 -0.0115901)
(-3.44249e-05 0.011558 -0.000397435)
(-0.00065089 0.0191964 -0.000490769)
(-0.0016736 0.021633 -0.000499536)
(-0.00252099 0.0224234 -0.000471864)
(-0.00325573 0.0229004 -0.000444384)
(-0.00383698 0.0236 -0.000430474)
(-0.00429126 0.0247616 -0.000440127)
(-0.00464898 0.0265584 -0.000485205)
(-0.00494335 0.029188 -0.000579949)
(-0.00522263 0.0329134 -0.00073819)
(-0.00556814 0.0380683 -0.000959257)
(-0.00615377 0.045072 -0.00118946)
(-0.00757135 0.0541851 -0.00116777)
(-0.0112663 0.0646913 -0.00015599)
(-0.0203376 0.073243 0.00253764)
(-0.0398003 0.0717818 0.00667706)
(-0.0712715 0.048805 0.0103286)
(-0.0948458 -0.00677573 0.0153672)
(-0.0789433 -0.0644461 0.0156995)
(-0.0271456 -0.0651284 -0.00193536)
(-7.97267e-05 0.0127133 -0.000460856)
(-0.000775889 0.0210943 -0.00056689)
(-0.00178214 0.0235438 -0.000566895)
(-0.00244963 0.0241041 -0.000519926)
(-0.00286985 0.024308 -0.000470373)
(-0.00299351 0.0247676 -0.000435431)
(-0.0028402 0.0257437 -0.000424885)
(-0.00240367 0.0274251 -0.000448285)
(-0.00164973 0.0300291 -0.000515208)
(-0.000544844 0.0338557 -0.000626572)
(0.000946275 0.039295 -0.000725879)
(0.00272155 0.0467562 -0.000662499)
(0.00399663 0.0563931 0.000132382)
(0.00247546 0.0669476 0.00295038)
(-0.00762393 0.0741574 0.00910721)
(-0.0361338 0.0680482 0.0188058)
(-0.0853521 0.0293784 0.0317613)
(-0.113773 -0.0634567 0.0420106)
(-0.0957906 -0.139797 0.0295775)
(-0.0354415 -0.132042 0.00576071)
(-0.000243686 0.0142008 -0.00058438)
(-0.00120724 0.0233916 -0.000721264)
(-0.00228721 0.0257373 -0.000721677)
(-0.0027681 0.0259004 -0.000649915)
(-0.00283199 0.0256187 -0.000562494)
(-0.0024525 0.0255947 -0.000487648)
(-0.00165084 0.0261134 -0.000440692)
(-0.000382233 0.0273483 -0.000431746)
(0.00146073 0.0295238 -0.000460792)
(0.00402706 0.0328852 -0.000523308)
(0.00744032 0.0378056 -0.000534375)
(0.0116945 0.0445759 -0.000258695)
(0.0158349 0.0532751 0.00111949)
(0.017004 0.0624775 0.00535959)
(0.00703322 0.0680316 0.0146744)
(-0.0280281 0.0557261 0.0293215)
(-0.0861573 -0.00673502 0.04607)
(-0.114027 -0.132673 0.0432871)
(-0.111719 -0.211942 0.0212798)
(-0.0429844 -0.214669 -0.000570984)
(-0.000573069 0.016549 -0.000780573)
(-0.0019982 0.0259703 -0.000897904)
(-0.00328582 0.0276551 -0.000867678)
(-0.00365223 0.0269436 -0.000744448)
(-0.00340719 0.0259698 -0.000617769)
(-0.00252424 0.0253851 -0.000510818)
(-0.00107246 0.0253875 -0.000440385)
(0.00102625 0.0260533 -0.000403685)
(0.00391321 0.0275482 -0.000421817)
(0.00781139 0.030012 -0.00047435)
(0.0129524 0.0337264 -0.00046459)
(0.0194914 0.0388197 -0.000162636)
(0.0265656 0.0453056 0.00136115)
(0.0318963 0.0520184 0.00579739)
(0.0273761 0.0559405 0.0160707)
(0.000382189 0.0391259 0.031144)
(-0.0538195 -0.0360635 0.0426999)
(-0.0879493 -0.163768 0.0296646)
(-0.113775 -0.256202 0.0126674)
(-0.0437854 -0.290761 -0.0158244)
(-0.00194513 0.0188148 -0.00127732)
(-0.00472769 0.0303459 -0.00151174)
(-0.00580111 0.0315422 -0.00143251)
(-0.00564523 0.0301992 -0.00122819)
(-0.00464089 0.0281502 -0.00098816)
(-0.00304053 0.0264299 -0.000773488)
(-0.000911529 0.0252892 -0.000618289)
(0.00189495 0.024806 -0.000521774)
(0.00558331 0.0250745 -0.00051659)
(0.0104672 0.0261193 -0.000591654)
(0.0168322 0.0280966 -0.000646122)
(0.0249883 0.0309024 -0.000489607)
(0.034263 0.0344344 0.000680896)
(0.0436369 0.0373943 0.00405497)
(0.0461658 0.0387002 0.0124321)
(0.0359653 0.0227654 0.0247918)
(-0.00799343 -0.0455063 0.0320387)
(-0.049899 -0.160412 0.0229631)
(-0.102701 -0.277148 0.00819632)
(-0.0403819 -0.348089 -0.0308465)
(-0.00133141 0.0301926 -0.00228621)
(-0.00488129 0.0339658 -0.00219751)
(-0.00804644 0.0324491 -0.00199238)
(-0.00805112 0.0284405 -0.00152352)
(-0.00712007 0.0254319 -0.00117907)
(-0.00494812 0.0232469 -0.000887259)
(-0.00200427 0.0217881 -0.000687692)
(0.0017521 0.0208474 -0.000577495)
(0.00640073 0.0204116 -0.000596438)
(0.0122543 0.0203713 -0.000763006)
(0.0195245 0.0208509 -0.000965397)
(0.0286431 0.0214995 -0.00109862)
(0.0387266 0.0222523 -0.000566447)
(0.0502585 0.0213861 0.0013023)
(0.055742 0.0186942 0.00660276)
(0.0581366 0.00472534 0.0152567)
(0.0230786 -0.0441811 0.0209308)
(-0.0124642 -0.14177 0.0196983)
(-0.0867199 -0.276297 0.00295086)
(-0.0322045 -0.385373 -0.0442774)
(-0.0128772 0.027472 -0.00304344)
(-0.0214683 0.048246 -0.00388371)
(-0.0152127 0.0439376 -0.00378676)
(-0.0130256 0.0388754 -0.00327871)
(-0.00826889 0.0328271 -0.00250764)
(-0.00310165 0.027855 -0.00181068)
(0.00238514 0.0239646 -0.00131108)
(0.00829484 0.0209393 -0.0010204)
(0.0146186 0.0187291 -0.00095509)
(0.0219444 0.0169975 -0.00113677)
(0.0299757 0.0158767 -0.00145329)
(0.0398198 0.0147083 -0.00185508)
(0.0493001 0.0139705 -0.00190939)
(0.0615557 0.0116174 -0.00111945)
(0.0655721 0.00834729 0.00161366)
(0.0756015 -0.00248444 0.00753584)
(0.0483633 -0.0325217 0.0115461)
(0.0396025 -0.113132 0.0163459)
(-0.0529227 -0.260819 -0.00121187)
(-0.0121038 -0.397238 -0.0554273)
(-0.0466767 0.0874823 -0.0125134)
(-0.0299232 0.0393915 -0.00904464)
(-0.02052 0.0330286 -0.00701637)
(-0.000979608 0.0259288 -0.00509322)
(0.0155106 0.0194968 -0.00382297)
(0.0320313 0.0151645 -0.0028501)
(0.046432 0.0123701 -0.00216949)
(0.0601327 0.0101972 -0.00177523)
(0.0718607 0.00877326 -0.0015964)
(0.0843824 0.00740804 -0.0016915)
(0.0944279 0.00679551 -0.00194854)
(0.10801 0.00569907 -0.00241468)
(0.116158 0.00518868 -0.00278901)
(0.133583 0.00293867 -0.00277344)
(0.133962 -0.000730677 -0.00194044)
(0.155942 -0.011173 0.0016551)
(0.128555 -0.036617 0.00483421)
(0.15095 -0.098609 0.01043)
(0.0313722 -0.234199 -0.00406897)
(0.0356137 -0.364637 -0.0656927)
(0.117501 0.112305 -0.0111783)
(0.144064 0.0598923 -0.0118924)
(0.215901 0.0394871 -0.0118382)
(0.260763 0.0261821 -0.0107261)
(0.293407 0.0173447 -0.00932412)
(0.321119 0.0113758 -0.00813054)
(0.341698 0.00765839 -0.00703381)
(0.361465 0.00510977 -0.00620252)
(0.374222 0.00361511 -0.00544187)
(0.390861 0.00241305 -0.00494046)
(0.397832 0.00184118 -0.00454535)
(0.415185 0.00118688 -0.00429096)
(0.415602 0.00088884 -0.00419007)
(0.43687 2.44571e-06 -0.00389396)
(0.424967 -0.00140513 -0.00366478)
(0.449436 -0.00507412 -0.00279059)
(0.404774 -0.0136918 -0.00174104)
(0.415042 -0.0323932 -0.00183053)
(0.249442 -0.0724808 -0.0100967)
(0.167447 -0.137934 -0.0754629)
(-0.000137695 0.00016856 -0.000148905)
(-0.000964224 0.000418529 -0.000117974)
(-0.00233765 0.000505492 -9.27125e-05)
(-0.00374954 0.000536707 -7.89615e-05)
(-0.0052191 0.000555751 -8.31919e-05)
(-0.00670998 0.000576525 -0.000102117)
(-0.00820821 0.000598638 -0.000135357)
(-0.00969126 0.000616683 -0.000185969)
(-0.0111182 0.000623096 -0.000258927)
(-0.0124257 0.000608446 -0.00036015)
(-0.0135245 0.000561623 -0.000495583)
(-0.0142977 0.00047102 -0.000669572)
(-0.0146057 0.000327893 -0.00088218)
(-0.0143002 0.000130167 -0.00112586)
(-0.0132499 -0.000119481 -0.0013792)
(-0.0113836 -0.000387793 -0.00160461)
(-0.00876423 -0.000614593 -0.0017505)
(-0.00568846 -0.000712658 -0.00175998)
(-0.00238127 -0.000588542 -0.00158122)
(-0.000335145 -0.000106588 -0.000948339)
(-0.00040722 0.00114413 -0.000343619)
(-0.00207562 0.00222322 -0.000376421)
(-0.00460691 0.00261405 -0.000368402)
(-0.00721395 0.00275462 -0.000355548)
(-0.00990356 0.00281767 -0.000358546)
(-0.0125997 0.00285906 -0.000377656)
(-0.0152605 0.00288074 -0.00041449)
(-0.0178339 0.00286373 -0.000474201)
(-0.0202418 0.00277943 -0.000564172)
(-0.0223748 0.00259258 -0.000693206)
(-0.0240863 0.00226363 -0.00087034)
(-0.0251926 0.0017538 -0.00110247)
(-0.0254819 0.00103409 -0.00139042)
(-0.0247457 0.000101508 -0.00172621)
(-0.0227975 -0.00099415 -0.00208055)
(-0.0195399 -0.00212395 -0.00239454)
(-0.0150892 -0.00305675 -0.00259272)
(-0.00990167 -0.00346124 -0.00258657)
(-0.0043436 -0.00297946 -0.00228024)
(-0.000740454 -0.0010999 -0.00126141)
(-0.00051763 0.00280019 -0.000458035)
(-0.00255742 0.0050748 -0.000530417)
(-0.00560168 0.00589953 -0.000533574)
(-0.00871789 0.00618505 -0.000519844)
(-0.0119158 0.00628659 -0.000518927)
(-0.015106 0.0063186 -0.000533617)
(-0.01824 0.0062895 -0.000567184)
(-0.0212597 0.00616558 -0.000626657)
(-0.02408 0.0058931 -0.000721882)
(-0.0265814 0.00540488 -0.000865099)
(-0.0286037 0.00462592 -0.00106963)
(-0.0299435 0.00348329 -0.00134745)
(-0.0303597 0.00192438 -0.00170507)
(-0.0295874 -5.19827e-05 -0.00213574)
(-0.0273777 -0.00234375 -0.00260312)
(-0.0235755 -0.00470497 -0.00303296)
(-0.0182638 -0.00667211 -0.00331446)
(-0.0119755 -0.00755789 -0.00331059)
(-0.00516648 -0.00660668 -0.00288198)
(-0.000825071 -0.0027702 -0.00152786)
(-0.000550377 0.00456347 -0.000544345)
(-0.00273415 0.00811852 -0.000650101)
(-0.00599025 0.00938987 -0.000663007)
(-0.00931323 0.00981269 -0.000649539)
(-0.012724 0.00994578 -0.000646795)
(-0.0161344 0.0099676 -0.000659886)
(-0.0195037 0.00989534 -0.000693887)
(-0.0227833 0.009683 -0.000758106)
(-0.0258984 0.00925381 -0.00086567)
(-0.0287383 0.00850869 -0.00103374)
(-0.0311445 0.00733268 -0.00128277)
(-0.0329009 0.00560851 -0.00163373)
(-0.03373 0.00324375 -0.00210271)
(-0.0333002 0.000217525 -0.00269118)
(-0.0312558 -0.00335096 -0.00336564)
(-0.0272905 -0.0071139 -0.00402396)
(-0.0213517 -0.0103474 -0.00448799)
(-0.0140112 -0.0119007 -0.0045224)
(-0.00581714 -0.0104669 -0.00389461)
(-0.00076985 -0.00432821 -0.00198235)
(-0.000546689 0.00641162 -0.000609547)
(-0.00276772 0.0113247 -0.000744814)
(-0.00610135 0.0130676 -0.000766494)
(-0.00950671 0.0136387 -0.000754756)
(-0.0130169 0.013818 -0.000753549)
(-0.0165529 0.0138554 -0.000770464)
(-0.020091 0.0137815 -0.000812793)
(-0.023603 0.0135424 -0.000892904)
(-0.0270374 0.0130411 -0.00102859)
(-0.0303061 0.0121468 -0.00124425)
(-0.0332657 0.0106984 -0.00157149)
(-0.0356962 0.0085172 -0.00204713)
(-0.0372794 0.00543788 -0.00270566)
(-0.0375857 0.00137119 -0.00356388)
(-0.0361023 -0.00359149 -0.00460165)
(-0.0322804 -0.00905005 -0.0056917)
(-0.0257787 -0.0139902 -0.00653683)
(-0.017092 -0.0166353 -0.0066999)
(-0.00679932 -0.014796 -0.00571747)
(-0.000646612 -0.00580089 -0.00275866)
(-0.000526877 0.00828066 -0.000663532)
(-0.00273651 0.0146039 -0.00082669)
(-0.00608747 0.0168424 -0.000856922)
(-0.00952156 0.0175796 -0.0008482)
(-0.0130828 0.0178319 -0.000851189)
(-0.0167054 0.0179301 -0.000876304)
(-0.0203888 0.0179259 -0.000933612)
(-0.0241345 0.0177642 -0.00103948)
(-0.0279264 0.0173345 -0.00121804)
(-0.0317156 0.0164776 -0.001504)
(-0.0353947 0.0149834 -0.00194566)
(-0.0387611 0.0125948 -0.00260585)
(-0.0414725 0.0090344 -0.00355435)
(-0.043006 0.00407471 -0.00484907)
(-0.0426719 -0.00232762 -0.00651181)
(-0.0395666 -0.00976973 -0.00839221)
(-0.0328167 -0.0170821 -0.0100126)
(-0.0224922 -0.0217241 -0.0105287)
(-0.00881437 -0.0198895 -0.00893925)
(-0.00053219 -0.00721648 -0.00403607)
(-0.000498177 0.0101428 -0.000714882)
(-0.00267099 0.0179167 -0.000906603)
(-0.00600664 0.020674 -0.000945318)
(-0.00943567 0.0215964 -0.000939623)
(-0.0130111 0.0219518 -0.000947215)
(-0.0166821 0.0221635 -0.000981825)
(-0.0204752 0.0223148 -0.00105694)
(-0.0244294 0.022361 -0.00119392)
(-0.0285771 0.0221905 -0.001425)
(-0.0329293 0.0216278 -0.00179894)
(-0.0374465 0.020421 -0.00238834)
(-0.0419911 0.0182316 -0.00329714)
(-0.0462577 0.0146428 -0.00466076)
(-0.0496961 0.00921744 -0.00662343)
(-0.0514275 0.00164936 -0.00926547)
(-0.0502153 -0.007948 -0.0124618)
(-0.044408 -0.0186363 -0.0154661)
(-0.0327022 -0.0272819 -0.0166896)
(-0.0137813 -0.0268609 -0.0141961)
(-0.000830027 -0.00928392 -0.0061508)
(-0.000462544 0.0119844 -0.000769146)
(-0.00258141 0.0212446 -0.000991727)
(-0.00587714 0.0245396 -0.00103826)
(-0.00926673 0.0256591 -0.00103365)
(-0.0128095 0.0261397 -0.00104335)
(-0.0164688 0.0265112 -0.00108491)
(-0.0202994 0.0269018 -0.00117567)
(-0.0243825 0.0272935 -0.00134268)
(-0.0288102 0.0275945 -0.00162777)
(-0.0336757 0.0276393 -0.00209689)
(-0.0390465 0.0271644 -0.00285428)
(-0.0449182 0.0257787 -0.00406111)
(-0.0511366 0.0229444 -0.00594817)
(-0.0572889 0.0179848 -0.00878818)
(-0.0625874 0.0101245 -0.0127678)
(-0.0656179 -0.00148433 -0.0176516)
(-0.0635832 -0.0172673 -0.0221007)
(-0.0521211 -0.0345433 -0.0238355)
(-0.0261647 -0.0394507 -0.0204535)
(-0.00286847 -0.0146435 -0.00961537)
(-0.000422019 0.0137974 -0.00083088)
(-0.00247617 0.0245764 -0.00108796)
(-0.00571113 0.028417 -0.00114073)
(-0.00902078 0.0297284 -0.00113297)
(-0.0124677 0.0303356 -0.00113907)
(-0.0160253 0.0308907 -0.00118075)
(-0.0197742 0.0315825 -0.00127932)
(-0.0238367 0.0324397 -0.00146732)
(-0.0283678 0.0334187 -0.00179589)
(-0.0335562 0.0344058 -0.00234851)
(-0.0396138 0.0351866 -0.00326362)
(-0.0467504 0.0354049 -0.00476472)
(-0.0551318 0.0345126 -0.00717649)
(-0.0648271 0.0316449 -0.0108517)
(-0.0756448 0.0251921 -0.0158318)
(-0.0863455 0.011881 -0.0211056)
(-0.092549 -0.0132628 -0.0243438)
(-0.0841359 -0.0487842 -0.0239998)
(-0.0508695 -0.0670651 -0.021556)
(-0.00914463 -0.0302691 -0.0144587)
(-0.000381749 0.0155835 -0.000905703)
(-0.00237285 0.0279119 -0.00120239)
(-0.00553468 0.0322872 -0.00125883)
(-0.00872016 0.0337573 -0.00124141)
(-0.0119927 0.0344574 -0.00123489)
(-0.0153295 0.0351798 -0.00126547)
(-0.0188295 0.0361887 -0.00135798)
(-0.0226468 0.0375801 -0.00154902)
(-0.0269889 0.0393918 -0.00189577)
(-0.0321318 0.0416142 -0.00249233)
(-0.0384337 0.0441679 -0.00349499)
(-0.0463528 0.0468628 -0.00514342)
(-0.0565092 0.0492986 -0.00770406)
(-0.0698138 0.0503636 -0.0111649)
(-0.0873188 0.0465779 -0.0145066)
(-0.108495 0.0294746 -0.0150242)
(-0.125701 -0.0138572 -0.0100505)
(-0.121028 -0.0810975 -0.00402376)
(-0.0827267 -0.120579 -0.00879745)
(-0.0209518 -0.0690537 -0.0168862)
(-0.000352528 0.0173646 -0.00100241)
(-0.00230614 0.0312699 -0.00134519)
(-0.00540123 0.0361362 -0.00140123)
(-0.00842192 0.0376888 -0.00136515)
(-0.0114335 0.0383991 -0.00133381)
(-0.0144089 0.0392142 -0.00133825)
(-0.0174542 0.0404837 -0.00140557)
(-0.0207359 0.0423847 -0.00157314)
(-0.0244843 0.0450618 -0.00189677)
(-0.0290229 0.048659 -0.0024632)
(-0.0348085 0.0533168 -0.00339966)
(-0.0424925 0.0591208 -0.00482854)
(-0.0531262 0.0658229 -0.00657295)
(-0.0685348 0.071485 -0.00738039)
(-0.0908367 0.0688889 -0.00412272)
(-0.120001 0.0421738 0.00738579)
(-0.145587 -0.0274975 0.0264207)
(-0.143722 -0.130538 0.0354497)
(-0.105106 -0.189375 0.015233)
(-0.0323361 -0.140527 -0.00841126)
(-0.000357241 0.0192051 -0.0011373)
(-0.00234354 0.0347281 -0.00153827)
(-0.00541012 0.0400094 -0.00159162)
(-0.00823451 0.0415182 -0.00152673)
(-0.010898 0.0420912 -0.00145484)
(-0.0133644 0.0428462 -0.00141407)
(-0.0157365 0.0442214 -0.00143327)
(-0.0181658 0.0464754 -0.00154686)
(-0.0208581 0.0498634 -0.0017991)
(-0.0241079 0.054694 -0.00224201)
(-0.028353 0.061339 -0.00289837)
(-0.0342542 0.070101 -0.003588)
(-0.0430225 0.0805759 -0.00329546)
(-0.0571052 0.0891989 0.00100262)
(-0.0795998 0.0845958 0.0143227)
(-0.111905 0.0454738 0.0409474)
(-0.14479 -0.0461014 0.0713412)
(-0.145901 -0.171276 0.0705145)
(-0.112958 -0.245684 0.0337363)
(-0.0359175 -0.224974 0.00482586)
(-0.000428576 0.0211887 -0.00133287)
(-0.00257157 0.0383071 -0.00179409)
(-0.00569536 0.0438034 -0.00182879)
(-0.00832334 0.0450486 -0.00171756)
(-0.0105735 0.0452891 -0.00159044)
(-0.0123969 0.0457917 -0.00149113)
(-0.013892 0.0470486 -0.00144646)
(-0.0151745 0.0493717 -0.00148264)
(-0.01638 0.0530959 -0.00162533)
(-0.0176971 0.0586385 -0.0018756)
(-0.0194396 0.066511 -0.00209858)
(-0.0221094 0.0770352 -0.00174765)
(-0.0268963 0.089461 0.00104881)
(-0.0366606 0.0987585 0.0107494)
(-0.0561092 0.0914173 0.0335476)
(-0.0894126 0.0441045 0.0707726)
(-0.129078 -0.0578215 0.100502)
(-0.129429 -0.19497 0.0796739)
(-0.111182 -0.287131 0.0350198)
(-0.0318471 -0.301705 0.00462586)
(-0.000672148 0.0236266 -0.00166522)
(-0.00326059 0.0425755 -0.00223889)
(-0.00656338 0.0481966 -0.00227083)
(-0.00893584 0.0489688 -0.0021002)
(-0.0106565 0.0485394 -0.00188341)
(-0.0117153 0.048392 -0.00168543)
(-0.0122009 0.0490951 -0.00154145)
(-0.0121619 0.0509957 -0.00147528)
(-0.0116357 0.0544569 -0.00148858)
(-0.0106569 0.0599096 -0.00154008)
(-0.00936298 0.0678926 -0.00138505)
(-0.00796179 0.0786209 -0.000194261)
(-0.00749248 0.0912112 0.00437198)
(-0.010787 0.100121 0.0175109)
(-0.0244002 0.0922104 0.0455555)
(-0.0539676 0.0432511 0.0844164)
(-0.0932406 -0.0607624 0.103918)
(-0.0920038 -0.202942 0.0673767)
(-0.100015 -0.312357 0.0273516)
(-0.0231253 -0.368627 -0.00697475)
(-0.00104825 0.0269699 -0.00214562)
(-0.00416768 0.046689 -0.00274849)
(-0.0079524 0.0515151 -0.00272655)
(-0.0102898 0.0510964 -0.00245147)
(-0.0116282 0.0498203 -0.00214598)
(-0.011906 0.0490418 -0.00186422)
(-0.0112851 0.0491952 -0.00164337)
(-0.00980098 0.0505174 -0.00149088)
(-0.0074239 0.0533142 -0.00142469)
(-0.00402456 0.0579386 -0.00136412)
(0.000441459 0.0648904 -0.00102935)
(0.00618174 0.0742651 0.000418232)
(0.0124123 0.0852528 0.00529639)
(0.0174546 0.0930295 0.0181403)
(0.0142265 0.0870465 0.0451189)
(-0.00124112 0.0439909 0.0780663)
(-0.0349686 -0.052376 0.0876098)
(-0.0396418 -0.183518 0.0513495)
(-0.0769483 -0.313811 0.0203286)
(-0.00955446 -0.419126 -0.019767)
(-0.00314589 0.029883 -0.00314505)
(-0.00849397 0.0540986 -0.00400563)
(-0.0117499 0.0586848 -0.00392042)
(-0.0132052 0.0575229 -0.00352345)
(-0.0133075 0.0545484 -0.00301617)
(-0.0124628 0.0519981 -0.00252894)
(-0.0107213 0.0504266 -0.00213096)
(-0.00797071 0.0500772 -0.00183865)
(-0.0040407 0.0511823 -0.00168768)
(0.00140588 0.0539229 -0.0015946)
(0.00858718 0.0586909 -0.00131137)
(0.0179921 0.0653917 -0.00021184)
(0.0290304 0.0732895 0.0035982)
(0.0414863 0.0785083 0.0131332)
(0.0482752 0.0746501 0.0335872)
(0.0505577 0.0425703 0.0585553)
(0.0226253 -0.0373683 0.0636281)
(0.0136597 -0.149057 0.0404509)
(-0.049414 -0.300149 0.0157714)
(0.00826666 -0.4518 -0.0319402)
(-0.00127274 0.0443181 -0.00511291)
(-0.00721275 0.0573961 -0.00570572)
(-0.0150077 0.0581514 -0.0052912)
(-0.0167176 0.0535063 -0.00440708)
(-0.0171819 0.0499009 -0.00371102)
(-0.0156211 0.0472671 -0.00307688)
(-0.0127477 0.0455838 -0.00257674)
(-0.00853115 0.0447191 -0.00222528)
(-0.00292745 0.0448059 -0.00208568)
(0.00446811 0.0458807 -0.00210226)
(0.013884 0.0483186 -0.00211899)
(0.0259359 0.0518038 -0.0016814)
(0.0398053 0.0559414 0.000493729)
(0.0569802 0.0575217 0.00596935)
(0.0682994 0.0531618 0.0183635)
(0.0833273 0.0311468 0.0355062)
(0.0602605 -0.0261409 0.0394687)
(0.0574951 -0.111465 0.0316311)
(-0.0197048 -0.278254 0.0119847)
(0.0341438 -0.466088 -0.0431426)
(-0.0124721 0.0347987 -0.00597651)
(-0.0233939 0.0780281 -0.00795644)
(-0.0201865 0.0763527 -0.00820927)
(-0.0232234 0.0704749 -0.00747536)
(-0.0214288 0.0624951 -0.00619092)
(-0.0178929 0.0557416 -0.00494861)
(-0.0125732 0.0503165 -0.00399058)
(-0.00572835 0.0460646 -0.00336061)
(0.00244696 0.0430412 -0.00311405)
(0.0124235 0.0409426 -0.00323064)
(0.0238346 0.0400623 -0.00357207)
(0.0378247 0.0397472 -0.00384952)
(0.052249 0.0406053 -0.00329555)
(0.0713592 0.0396481 -0.000770834)
(0.0818355 0.0366038 0.0049129)
(0.104001 0.0240994 0.0162209)
(0.0873437 -0.0107185 0.017851)
(0.107384 -0.0716299 0.0204785)
(0.0360305 -0.251341 0.00754841)
(0.0774367 -0.459394 -0.0539255)
(-0.0763084 0.0990714 -0.0201489)
(-0.0610069 0.0597793 -0.0165482)
(-0.059952 0.0590227 -0.0135484)
(-0.0366722 0.0511235 -0.0109069)
(-0.0169909 0.0431419 -0.00907855)
(0.00488118 0.0372547 -0.00752855)
(0.0252001 0.0330351 -0.00639644)
(0.0456732 0.02945 -0.00564768)
(0.0640775 0.0269316 -0.00525232)
(0.0840775 0.0245304 -0.00526579)
(0.100631 0.0233017 -0.00559034)
(0.122332 0.021812 -0.00615815)
(0.136095 0.0211512 -0.00668931)
(0.163968 0.0197906 -0.00625664)
(0.170258 0.0149057 -0.00486504)
(0.207092 0.00720289 7.20182e-05)
(0.190663 -0.0239493 0.00414117)
(0.231116 -0.0719426 0.00677384)
(0.155354 -0.230855 0.0022222)
(0.150398 -0.411713 -0.0650018)
(0.119078 0.140136 -0.0171983)
(0.151414 0.0854852 -0.019122)
(0.228594 0.063043 -0.019417)
(0.283432 0.0475595 -0.0182105)
(0.324627 0.0366757 -0.0165017)
(0.362737 0.0286257 -0.0149918)
(0.391266 0.0230155 -0.0135079)
(0.422155 0.0187523 -0.0124389)
(0.441544 0.0157419 -0.0112702)
(0.469743 0.0133051 -0.0107102)
(0.481501 0.0115328 -0.00985753)
(0.510681 0.0101205 -0.00988352)
(0.514444 0.00888574 -0.00906926)
(0.547236 0.00772637 -0.00957847)
(0.539699 0.00572027 -0.00784863)
(0.57412 0.00182838 -0.00868971)
(0.541029 -0.00668206 -0.0049343)
(0.553375 -0.0253885 -0.00986519)
(0.423981 -0.0674037 -0.0113482)
(0.302502 -0.144722 -0.0779939)
(-0.000151682 0.000159298 -0.000233729)
(-0.00110561 0.000457151 -0.000273762)
(-0.00270291 0.00056409 -0.000269568)
(-0.0043371 0.000599815 -0.000266565)
(-0.00602636 0.000617563 -0.000280879)
(-0.00772737 0.000635415 -0.000314144)
(-0.00942459 0.000653373 -0.000368792)
(-0.0110931 0.000665157 -0.000449869)
(-0.0126876 0.000661893 -0.000564168)
(-0.0141384 0.000632432 -0.000719193)
(-0.0153475 0.000563578 -0.00092183)
(-0.0161863 0.000441529 -0.00117606)
(-0.0165008 0.000255683 -0.00147948)
(-0.0161243 1.05729e-06 -0.00181955)
(-0.0149071 -0.000313367 -0.00216513)
(-0.012767 -0.00064722 -0.00246986)
(-0.00977293 -0.000922339 -0.00267118)
(-0.0062686 -0.00102518 -0.00270333)
(-0.00253476 -0.000834007 -0.00248741)
(-0.00030805 -0.000190076 -0.00162362)
(-0.00048928 0.00121786 -0.000434497)
(-0.00250292 0.00249913 -0.00056454)
(-0.00555686 0.00297392 -0.000581076)
(-0.00868435 0.00313196 -0.000579125)
(-0.011885 0.00318424 -0.000595485)