/*--------------------------------*- C++ -*----------------------------------*\
  =========                 |
  \\      /  F ield         | OpenFOAM: The Open Source CFD Toolbox
   \\    /   O peration     | Website:  https://openfoam.org
    \\  /    A nd           | Version:  10
     \\/     M anipulation  |
\*---------------------------------------------------------------------------*/
FoamFile
{
    format      ascii;
    class       volVectorField;
    location    "0.95";
    object      U;
}
// * * * * * * * * * * * * * * * * * * * * * * * * * * * * * * * * * * * * * //

dimensions      [0 1 -1 0 0 0 0];

internalField   nonuniform List<vector> 
8000
(
(-0.000249269 0.000246072 -5.9027e-07)
(-0.00081525 0.000288009 2.97094e-06)
(-0.00142675 0.000277123 3.65372e-06)
(-0.00199447 0.000256563 3.75091e-06)
(-0.00251169 0.000229581 3.5065e-06)
(-0.00296554 0.000197048 3.05769e-06)
(-0.00334497 0.000159822 2.47541e-06)
(-0.00364095 0.000118804 1.79656e-06)
(-0.00384643 7.49151e-05 1.04473e-06)
(-0.00395635 2.9085e-05 2.38022e-07)
(-0.00396758 -1.77476e-05 -6.02409e-07)
(-0.00387905 -6.46018e-05 -1.45576e-06)
(-0.00369179 -0.000110444 -2.30228e-06)
(-0.00340906 -0.000154178 -3.114e-06)
(-0.00303656 -0.00019464 -3.85364e-06)
(-0.0025825 -0.000230621 -4.46692e-06)
(-0.00205787 -0.000260914 -4.86189e-06)
(-0.00147621 -0.000284283 -4.87803e-06)
(-0.000845808 -0.000297044 -4.23488e-06)
(-0.000259324 -0.000254882 -5.29096e-07)
(-0.000303773 0.000822018 -4.35405e-06)
(-0.000987267 0.000955284 -6.49293e-07)
(-0.00172063 0.000918883 2.75581e-07)
(-0.0024015 0.000850388 6.81794e-07)
(-0.00302134 0.000760509 7.94232e-07)
(-0.00356468 0.00065227 7.53494e-07)
(-0.00401843 0.000528598 6.2535e-07)
(-0.00437198 0.000392525 4.36651e-07)
(-0.0046171 0.000247103 1.98309e-07)
(-0.00474791 9.53886e-05 -8.30107e-08)
(-0.00476083 -5.9548e-05 -3.8761e-07)
(-0.00465463 -0.000214479 -7.18118e-07)
(-0.0044305 -0.000366082 -1.06292e-06)
(-0.00409228 -0.000510773 -1.40368e-06)
(-0.00364659 -0.000644732 -1.71237e-06)
(-0.00310311 -0.000763956 -1.94189e-06)
(-0.0024748 -0.000864409 -2.00274e-06)
(-0.00177788 -0.00094189 -1.73103e-06)
(-0.00102267 -0.00098429 -8.52561e-07)
(-0.000315429 -0.000850314 3.06009e-06)
(-0.000320829 0.00148793 -5.6632e-06)
(-0.00104287 0.00172148 -1.80715e-06)
(-0.0018172 0.00165518 -7.98353e-07)
(-0.00253516 0.00153113 -2.97376e-07)
(-0.00318805 0.00136855 -7.48937e-08)
(-0.00375978 0.0011731 9.83148e-09)
(-0.00423686 0.000950166 1.87801e-08)
(-0.00460854 0.000705264 -2.38998e-08)
(-0.00486651 0.000443869 -1.0693e-07)
(-0.00500488 0.000171387 -2.25363e-07)
(-0.00501992 -0.000106768 -3.76918e-07)
(-0.00491023 -0.000385006 -5.57689e-07)
(-0.00467683 -0.000657468 -7.59742e-07)
(-0.00432321 -0.00091783 -9.686e-07)
(-0.00385578 -0.00115927 -1.15888e-06)
(-0.00328413 -0.00137456 -1.28443e-06)
(-0.0026215 -0.00155629 -1.25317e-06)
(-0.00188476 -0.00169668 -8.9285e-07)
(-0.0010847 -0.00177394 8.10094e-08)
(-0.000334589 -0.00153916 4.1827e-06)
(-0.00034358 0.00218375 -6.62507e-06)
(-0.00111682 0.00252266 -2.52792e-06)
(-0.00194547 0.00242418 -1.4326e-06)
(-0.00271255 0.0022412 -8.64606e-07)
(-0.00340887 0.00200198 -5.79613e-07)
(-0.00401762 0.00171511 -4.31601e-07)
(-0.00452498 0.00138869 -3.54466e-07)
(-0.00492016 0.00103084 -3.23763e-07)
(-0.00519497 0.000649455 -3.30835e-07)
(-0.00534356 0.000252232 -3.73166e-07)
(-0.00536214 -0.000153235 -4.50467e-07)
(-0.00524904 -0.000559191 -5.6121e-07)
(-0.00500477 -0.000957359 -6.99874e-07)
(-0.00463223 -0.00133874 -8.5346e-07)
(-0.00413724 -0.00169345 -9.97002e-07)
(-0.00352902 -0.0020108 -1.08229e-06)
(-0.00282088 -0.00227962 -1.01029e-06)
(-0.00203051 -0.00248801 -5.93565e-07)
(-0.00116958 -0.00260358 4.74119e-07)
(-0.000360925 -0.00226289 4.87622e-06)
(-0.000375561 0.00293705 -7.60845e-06)
(-0.00122043 0.00338969 -3.15588e-06)
(-0.00212464 0.00325506 -1.9572e-06)
(-0.00295964 0.00300682 -1.32246e-06)
(-0.00371559 0.0026835 -9.8888e-07)
(-0.00437471 0.0022972 -7.97229e-07)
(-0.00492297 0.00185918 -6.75945e-07)
(-0.00534975 0.00138041 -5.99451e-07)
(-0.00564718 0.000871257 -5.6013e-07)
(-0.00580967 0.000341564 -5.57409e-07)
(-0.00583343 -0.000199145 -5.92828e-07)
(-0.00571638 -0.000741184 -6.66229e-07)
(-0.00545829 -0.00127414 -7.75115e-07)
(-0.00506106 -0.00178645 -9.07658e-07)
(-0.00452939 -0.00226507 -1.03843e-06)
(-0.00387167 -0.00269546 -1.11517e-06)
(-0.00310104 -0.00306198 -1.02754e-06)
(-0.0022361 -0.00334758 -5.64509e-07)
(-0.00128978 -0.00350755 6.16588e-07)
(-0.000398367 -0.00305256 5.46233e-06)
(-0.000418171 0.00376872 -8.78064e-06)
(-0.00135811 0.00434595 -3.84877e-06)
(-0.00236194 0.0041693 -2.52102e-06)
(-0.00328567 0.00384668 -1.80761e-06)
(-0.00411861 0.00342866 -1.42245e-06)
(-0.004842 0.00293183 -1.18851e-06)
(-0.00544185 0.00237126 -1.02717e-06)
(-0.00590817 0.00176107 -9.11126e-07)
(-0.0062339 0.00111415 -8.3323e-07)
(-0.00641404 0.000442235 -7.94508e-07)
(-0.00644497 -0.000243632 -7.98874e-07)
(-0.00632411 -0.000932355 -8.47573e-07)
(-0.0060501 -0.00161181 -9.42323e-07)
(-0.00562323 -0.00226816 -1.07266e-06)
(-0.00504631 -0.00288514 -1.21241e-06)
(-0.00432605 -0.00344388 -1.30354e-06)
(-0.00347478 -0.00392329 -1.21967e-06)
(-0.00251185 -0.00429961 -7.15614e-07)
(-0.00145178 -0.00451311 6.03613e-07)
(-0.000449009 -0.00393302 6.05241e-06)
(-0.000473312 0.00470257 -1.02765e-05)
(-0.00153573 0.00541796 -4.72553e-06)
(-0.00266675 0.00519062 -3.23334e-06)
(-0.00370221 0.00478072 -2.41745e-06)
(-0.00463051 0.00425342 -1.96472e-06)
(-0.00543212 0.00363124 -1.67598e-06)
(-0.00609374 0.00293399 -1.46416e-06)
(-0.00660686 0.00217938 -1.29975e-06)
(-0.00696602 0.00138275 -1.17623e-06)
(-0.00716746 0.000557282 -1.09673e-06)
(-0.00720802 -0.000285148 -1.06832e-06)
(-0.00708456 -0.0011329 -1.09357e-06)
(-0.0067941 -0.00197291 -1.18052e-06)
(-0.00633438 -0.00278962 -1.32109e-06)
(-0.00570512 -0.0035637 -1.4888e-06)
(-0.00490992 -0.00427144 -1.61864e-06)
(-0.00395901 -0.00488493 -1.56278e-06)
(-0.00287187 -0.00537143 -1.02829e-06)
(-0.00166468 -0.00565215 4.53896e-07)
(-0.00051587 -0.00493379 6.69083e-06)
(-0.000543812 0.0057673 -1.22391e-05)
(-0.00176186 0.00663715 -5.90304e-06)
(-0.00305237 0.00634632 -4.19771e-06)
(-0.00422526 0.00583085 -3.23985e-06)
(-0.00526817 0.00517433 -2.68817e-06)
(-0.00616143 0.00440732 -2.31702e-06)
(-0.00689371 0.00355563 -2.02975e-06)
(-0.00745942 0.00264107 -1.79478e-06)
(-0.00785601 0.00168118 -1.60675e-06)
(-0.00808194 0.000689875 -1.47173e-06)
(-0.00813515 -0.000321262 -1.40071e-06)
(-0.00801187 -0.00134139 -1.39739e-06)
(-0.00770683 -0.00235785 -1.47823e-06)
(-0.00721402 -0.00335442 -1.64058e-06)
(-0.00652814 -0.00430922 -1.8594e-06)
(-0.00564741 -0.0051933 -2.06253e-06)
(-0.00457759 -0.00597022 -2.07518e-06)
(-0.00333667 -0.00659499 -1.5405e-06)
(-0.00194212 -0.00696365 1.01878e-07)
(-0.000603584 -0.00609182 7.36911e-06)
(-0.00063397 0.00699866 -1.48672e-05)
(-0.00204916 0.0080417 -7.54125e-06)
(-0.00353795 0.00766809 -5.54984e-06)
(-0.00487709 0.00702093 -4.38318e-06)
(-0.00605415 0.00620784 -3.6758e-06)
(-0.00705083 0.00527051 -3.17146e-06)
(-0.00786001 0.00424244 -2.76357e-06)
(-0.00848133 0.00314998 -2.41905e-06)
(-0.00891723 0.00201239 -2.13441e-06)
(-0.00916991 0.000843078 -1.91921e-06)
(-0.00923929 -0.000348379 -1.78867e-06)
(-0.00912116 -0.00155396 -1.74704e-06)
(-0.00880714 -0.00276362 -1.82005e-06)
(-0.00828575 -0.0039623 -2.01685e-06)
(-0.00754399 -0.0051268 -2.31858e-06)
(-0.00657107 -0.00622295 -2.64836e-06)
(-0.00536421 -0.00720393 -2.79928e-06)
(-0.00393647 -0.0080079 -2.32706e-06)
(-0.00230495 -0.00849651 -5.444e-07)
(-0.000719437 -0.00745514 8.03323e-06)
(-0.000750554 0.008443 -1.84743e-05)
(-0.00241692 0.00967938 -9.89612e-06)
(-0.00415147 0.0091933 -7.49461e-06)
(-0.00568896 0.00837654 -5.99961e-06)
(-0.00701872 0.00736911 -5.03328e-06)
(-0.00812685 0.00622816 -4.30544e-06)
(-0.00901427 0.00499694 -3.70002e-06)
(-0.00968949 0.00370662 -3.1831e-06)
(-0.0101629 0.00237713 -2.75309e-06)
(-0.0104427 0.00101942 -2.42225e-06)
(-0.0105322 -0.000361481 -2.20854e-06)
(-0.0104271 -0.00176328 -2.11476e-06)
(-0.0101152 -0.0031818 -2.17707e-06)
(-0.00957721 -0.00460646 -2.42084e-06)
(-0.0087888 -0.00601522 -2.84768e-06)
(-0.00772472 -0.00736968 -3.38556e-06)
(-0.00636688 -0.00861104 -3.794e-06)
(-0.00471651 -0.00965466 -3.5083e-06)
(-0.00278606 -0.0103137 -1.62663e-06)
(-0.000875414 -0.00908921 8.53747e-06)
(-0.000904742 0.0101633 -2.3591e-05)
(-0.00289546 0.0116117 -1.34096e-05)
(-0.00493466 0.0109664 -1.03572e-05)
(-0.00670537 0.00992403 -8.30956e-06)
(-0.0082027 0.00866963 -6.89331e-06)
(-0.00942303 0.00728159 -5.78228e-06)
(-0.0103816 0.00581507 -4.85106e-06)
(-0.0111012 0.00430573 -4.0651e-06)
(-0.0116044 0.00277227 -3.42205e-06)
(-0.0119085 0.0012201 -2.93035e-06)
(-0.012022 -0.000353976 -2.60428e-06)
(-0.0119415 -0.00195737 -2.44136e-06)
(-0.0116503 -0.00359633 -2.48755e-06)
(-0.0111192 -0.00526982 -2.79283e-06)
(-0.0103072 -0.00696206 -3.39391e-06)
(-0.00916711 -0.00863368 -4.2565e-06)
(-0.00765456 -0.0102135 -5.12284e-06)
(-0.00574592 -0.0115874 -5.27781e-06)
(-0.00343925 -0.0124986 -3.43354e-06)
(-0.00109235 -0.0110878 8.51817e-06)
(-0.00111605 0.0122499 -3.11687e-05)
(-0.00353429 0.01392 -1.88794e-05)
(-0.00595121 0.0130403 -1.46571e-05)
(-0.00799054 0.0116881 -1.16226e-05)
(-0.00966137 0.010113 -9.3987e-06)
(-0.0109815 0.00842124 -7.62368e-06)
(-0.0119902 0.00668177 -6.16164e-06)
(-0.0127323 0.00493304 -4.97155e-06)
(-0.0132486 0.00318859 -4.03354e-06)
(-0.013569 0.00144382 -3.33052e-06)
(-0.0137097 -0.000317707 -2.85762e-06)
(-0.0136695 -0.00211827 -2.60185e-06)
(-0.0134276 -0.0039806 -2.61485e-06)
(-0.0129429 -0.00592035 -2.99492e-06)
(-0.0121526 -0.00793641 -3.82756e-06)
(-0.0109764 -0.00999719 -5.16395e-06)
(-0.00932726 -0.0120229 -6.80415e-06)
(-0.00713258 -0.0138649 -7.90888e-06)
(-0.00435639 -0.0151626 -6.38058e-06)
(-0.00140869 -0.0135932 7.11842e-06)
(-0.00142065 0.0148404 -4.30147e-05)
(-0.0044177 0.0167139 -2.77736e-05)
(-0.0073002 0.0154765 -2.11895e-05)
(-0.00963833 0.013686 -1.63195e-05)
(-0.0114698 0.0116866 -1.26161e-05)
(-0.0128543 0.00961923 -9.7067e-06)
(-0.0138698 0.00756574 -7.42115e-06)
(-0.0145944 0.00556144 -5.66799e-06)
(-0.0150937 0.00360817 -4.35636e-06)
(-0.0154149 0.00168512 -3.39185e-06)
(-0.0155841 -0.000243337 -2.71715e-06)
(-0.0156044 -0.00222076 -2.30589e-06)
(-0.0154524 -0.00429376 -2.24891e-06)
(-0.015075 -0.00650445 -2.67222e-06)
(-0.0143841 -0.00887908 -3.78162e-06)
(-0.0132539 -0.0114098 -5.78376e-06)
(-0.0115305 -0.014025 -8.65594e-06)
(-0.00904774 -0.0165459 -1.17361e-05)
(-0.00570144 -0.0184519 -1.10658e-05)
(-0.00190026 -0.016838 2.39946e-06)
(-0.00189035 0.018147 -6.25502e-05)
(-0.0056962 0.0201365 -4.26571e-05)
(-0.00913856 0.0183412 -3.09943e-05)
(-0.0117871 0.0159147 -2.26663e-05)
(-0.0137284 0.0133488 -1.62626e-05)
(-0.0151025 0.0108194 -1.15209e-05)
(-0.016048 0.00841155 -8.08694e-06)
(-0.0166899 0.00614537 -5.65095e-06)
(-0.0171249 0.00400063 -3.93153e-06)
(-0.0174205 0.00193201 -2.64778e-06)
(-0.0176156 -0.000121659 -1.75807e-06)
(-0.0177199 -0.0022319 -1.10233e-06)
(-0.0177114 -0.00447735 -8.3081e-07)
(-0.0175283 -0.00693868 -1.14454e-06)
(-0.017058 -0.00968795 -2.43232e-06)
(-0.0161226 -0.0127672 -5.08627e-06)
(-0.0144737 -0.0161479 -9.81017e-06)
(-0.0117635 -0.0196674 -1.70596e-05)
(-0.00778398 -0.0225368 -1.86537e-05)
(-0.00273282 -0.0212458 -9.23212e-06)
(-0.00266863 0.0226804 -0.000100166)
(-0.00763943 0.0244045 -6.87862e-05)
(-0.0117121 0.0216964 -4.50291e-05)
(-0.0146389 0.0183249 -3.0091e-05)
(-0.0165656 0.0150073 -1.89509e-05)
(-0.0177917 0.0119206 -1.1627e-05)
(-0.0185439 0.00912818 -6.89044e-06)
(-0.0190053 0.00661349 -3.83864e-06)
(-0.019307 0.00431843 -1.8145e-06)
(-0.0195371 0.00216306 -2.60098e-07)
(-0.019748 5.39096e-05 1.04881e-06)
(-0.0199601 -0.00211227 1.86295e-06)
(-0.0201592 -0.00445386 2.61978e-06)
(-0.0202855 -0.00710212 3.00624e-06)
(-0.0202125 -0.010198 2.39668e-06)
(-0.0197141 -0.0138737 -3.8626e-07)
(-0.0184433 -0.0182046 -7.14609e-06)
(-0.0157016 -0.0231687 -2.2957e-05)
(-0.0112309 -0.0275573 -2.83508e-05)
(-0.00431018 -0.0275923 -3.83514e-05)
(-0.00420177 0.028038 -0.000153123)
(-0.0109351 0.0294094 -0.000105149)
(-0.0154436 0.0254636 -5.90281e-05)
(-0.0184861 0.0207607 -3.43369e-05)
(-0.0201327 0.0164792 -1.62736e-05)
(-0.0209808 0.0127518 -6.30593e-06)
(-0.0213538 0.00957607 -8.73078e-07)
(-0.0214981 0.0068628 2.10516e-06)
(-0.0215735 0.00449469 3.78027e-06)
(-0.021683 0.00234545 4.94468e-06)
(-0.0218886 0.000285502 5.99683e-06)
(-0.0222252 -0.00182216 7.5309e-06)
(-0.0226984 -0.00413216 9.513e-06)
(-0.0232692 -0.00683403 1.19945e-05)
(-0.0238259 -0.0101605 1.43901e-05)
(-0.0241252 -0.0143866 1.50626e-05)
(-0.0237768 -0.0197991 1.05433e-05)
(-0.0214716 -0.0268397 -1.86065e-05)
(-0.0172936 -0.0334693 -2.3804e-05)
(-0.00756019 -0.0371776 -0.000103543)
(-0.00626423 0.0408922 -0.000387302)
(-0.0155172 0.0365878 -0.000200142)
(-0.0206164 0.0299898 -7.60859e-05)
(-0.0236246 0.0230281 -2.49391e-05)
(-0.0245495 0.0174564 3.18492e-06)
(-0.0246601 0.0130362 1.343e-05)
(-0.024391 0.00954574 1.63077e-05)
(-0.0240392 0.00674919 1.62841e-05)
(-0.0237721 0.00443606 1.56132e-05)
(-0.0236898 0.00242421 1.54057e-05)
(-0.023855 0.000550856 1.64245e-05)
(-0.0243128 -0.00134186 1.89158e-05)
(-0.0251009 -0.00343489 2.38214e-05)
(-0.0262367 -0.00598006 3.20078e-05)
(-0.0276768 -0.00933293 4.42397e-05)
(-0.0292465 -0.0140396 5.98023e-05)
(-0.0307643 -0.020752 7.57616e-05)
(-0.029698 -0.0310364 2.55817e-05)
(-0.0279226 -0.0415747 4.57691e-05)
(-0.0140326 -0.0543114 -0.000241753)
(-0.0153235 0.0455237 -0.000389782)
(-0.0293273 0.0425125 -0.000244707)
(-0.0289262 0.0332517 7.39757e-07)
(-0.0304793 0.0242775 4.87351e-05)
(-0.0293503 0.0174935 7.21438e-05)
(-0.0279635 0.0125056 6.8479e-05)
(-0.0266005 0.00887545 5.80382e-05)
(-0.025484 0.00617615 4.77302e-05)
(-0.0247098 0.0040878 4.02533e-05)
(-0.024325 0.00237564 3.62758e-05)
(-0.024361 0.000855832 3.59002e-05)
(-0.0248655 -0.000637472 4.09632e-05)
(-0.0259301 -0.00226726 5.20691e-05)
(-0.0276785 -0.00425706 7.13093e-05)
(-0.0302732 -0.00693121 0.00010141)
(-0.0337223 -0.0109421 0.000137741)
(-0.0385605 -0.0166772 0.00019659)
(-0.039977 -0.0293087 9.89489e-05)
(-0.0445736 -0.0406846 0.000190734)
(-0.0222494 -0.0754566 -0.000399753)
(-0.0308368 0.100964 -0.00104239)
(-0.0354534 0.0458404 2.37892e-05)
(-0.0294003 0.0330737 0.000295302)
(-0.0249798 0.0211743 0.000358)
(-0.0192028 0.0137513 0.000306222)
(-0.01464 0.00934926 0.000226713)
(-0.011131 0.00645125 0.000164438)
(-0.00859156 0.00443114 0.000121483)
(-0.00686561 0.00295943 9.46348e-05)
(-0.00583653 0.0018191 8.06654e-05)
(-0.00544192 0.000858678 7.77749e-05)
(-0.00566079 -5.21736e-05 8.54325e-05)
(-0.00653017 -0.00105736 0.000110695)
(-0.00811158 -0.00238341 0.000162112)
(-0.0106069 -0.00446622 0.000265012)
(-0.0133103 -0.00860211 0.000418807)
(-0.0200928 -0.0162549 0.000820605)
(-0.0173999 -0.0353149 0.000750057)
(-0.0360013 -0.0641466 0.00147521)
(-0.00347828 -0.140418 -0.000528183)
(0.110565 0.0922484 -0.00145673)
(0.11676 0.0394806 -0.00107777)
(0.172524 0.0232637 -0.00016262)
(0.190917 0.0134835 0.000224434)
(0.202944 0.00766809 0.000267344)
(0.211232 0.00465343 0.000234856)
(0.216607 0.00300053 0.000187476)
(0.220191 0.0019989 0.000142914)
(0.22261 0.00134541 0.000111466)
(0.224173 0.000887343 9.39034e-05)
(0.225049 0.000539342 8.88253e-05)
(0.225305 0.000252135 9.65001e-05)
(0.224894 -3.61064e-05 0.000122803)
(0.223765 -0.000425321 0.000167445)
(0.220904 -0.00105275 0.00028098)
(0.217689 -0.00270525 0.000345867)
(0.203451 -0.00597703 0.000720736)
(0.201711 -0.0151713 0.00042195)
(0.128458 -0.0309388 -0.000192975)
(0.132322 -0.0865873 -0.00275101)
(-0.000294303 0.000290147 -1.37546e-06)
(-0.000963342 0.000342706 2.93485e-06)
(-0.0016856 0.000329891 3.95628e-06)
(-0.00235447 0.000305291 4.25327e-06)
(-0.00296315 0.000273018 4.07944e-06)
(-0.00349671 0.00023414 3.60127e-06)
(-0.00394232 0.000189692 2.91429e-06)
(-0.00428947 0.000140758 2.07346e-06)
(-0.00452998 8.84393e-05 1.11746e-06)
(-0.00465799 3.38494e-05 7.73233e-08)
(-0.00466998 -2.18824e-05 -1.02515e-06)
(-0.00456478 -7.7602e-05 -2.15488e-06)
(-0.00434372 -0.000132081 -3.2744e-06)
(-0.00401072 -0.000184024 -4.33832e-06)
(-0.00357251 -0.000232056 -5.2872e-06)
(-0.00303872 -0.000274753 -6.03787e-06)
(-0.00242212 -0.000310693 -6.46075e-06)
(-0.00173834 -0.000338403 -6.3509e-06)
(-0.000995858 -0.000353254 -5.40233e-06)
(-0.000304971 -0.000300214 -8.36863e-07)
(-0.000362122 0.000969859 -6.11882e-06)
(-0.00117716 0.00113688 -1.58355e-06)
(-0.00205056 0.00109397 -2.41654e-07)
(-0.00285961 0.00101199 4.41279e-07)
(-0.00359531 0.00090448 7.15748e-07)
(-0.00423957 0.000775124 7.46427e-07)
(-0.004777 0.00062745 6.2153e-07)
(-0.00519518 0.000465098 3.84602e-07)
(-0.00548447 0.000291733 6.11115e-08)
(-0.00563802 0.000111011 -3.36135e-07)
(-0.00565177 -7.34037e-05 -7.89697e-07)
(-0.0055244 -0.000257682 -1.28459e-06)
(-0.00525747 -0.000437874 -1.79511e-06)
(-0.00485562 -0.000609744 -2.28725e-06)
(-0.00432677 -0.000768779 -2.71155e-06)
(-0.00368237 -0.000910267 -2.99174e-06)
(-0.00293764 -0.00102945 -2.99905e-06)
(-0.00211145 -0.00112133 -2.52273e-06)
(-0.00121471 -0.0011707 -1.26767e-06)
(-0.000374422 -0.0010022 3.54784e-06)
(-0.000382848 0.00175529 -8.03304e-06)
(-0.00124469 0.00204794 -3.32888e-06)
(-0.00216768 0.00196976 -1.8378e-06)
(-0.00302153 0.00182134 -9.92175e-07)
(-0.00379709 0.00162694 -5.51064e-07)
(-0.00447551 0.00139345 -3.3749e-07)
(-0.00504097 0.00112736 -2.62466e-07)
(-0.00548083 0.000835282 -2.86036e-07)
(-0.00578541 0.000523786 -3.87975e-07)
(-0.00594784 0.000199338 -5.57632e-07)
(-0.00596389 -0.000131618 -7.893e-07)
(-0.00583208 -0.000462428 -1.06732e-06)
(-0.00555373 -0.000786141 -1.37228e-06)
(-0.00513316 -0.00109528 -1.67507e-06)
(-0.00457801 -0.00138179 -1.92935e-06)
(-0.00389967 -0.00163717 -2.05944e-06)
(-0.00311369 -0.0018527 -1.93254e-06)
(-0.00223973 -0.0020191 -1.32705e-06)
(-0.00128916 -0.00210905 6.05667e-08)
(-0.000397411 -0.00181384 5.09696e-06)
(-0.000410146 0.00257467 -9.59532e-06)
(-0.00133338 0.00299919 -4.61202e-06)
(-0.00232136 0.0028831 -2.97547e-06)
(-0.0032338 0.00266427 -1.99834e-06)
(-0.00406109 0.00237837 -1.43644e-06)
(-0.00478349 0.00203583 -1.10262e-06)
(-0.00538483 0.00164642 -9.02726e-07)
(-0.00585245 0.00121986 -7.96668e-07)
(-0.00617679 0.000765629 -7.67149e-07)
(-0.00635107 0.000292915 -8.06526e-07)
(-0.00637103 -0.000189229 -9.09489e-07)
(-0.00623485 -0.00067158 -1.06658e-06)
(-0.00594332 -0.00114433 -1.26261e-06)
(-0.00550004 -0.00159685 -1.47025e-06)
(-0.00491201 -0.00201748 -1.64305e-06)
(-0.00419018 -0.00239364 -1.70155e-06)
(-0.00335019 -0.0027122 -1.50255e-06)
(-0.00241265 -0.00295899 -8.04377e-07)
(-0.00138984 -0.0030935 7.18796e-07)
(-0.000428615 -0.00266512 6.11355e-06)
(-0.000448478 0.00346128 -1.1241e-05)
(-0.0014575 0.00402811 -5.83643e-06)
(-0.00253582 0.00386937 -4.02471e-06)
(-0.00352922 0.00357257 -2.91162e-06)
(-0.00442742 0.00318623 -2.23843e-06)
(-0.00520961 0.0027251 -1.80248e-06)
(-0.00585934 0.00220271 -1.5025e-06)
(-0.0063642 0.0016322 -1.29686e-06)
(-0.00671505 0.00102602 -1.16947e-06)
(-0.00690544 0.000395913 -1.11493e-06)
(-0.0069311 -0.000246767 -1.13074e-06)
(-0.00678981 -0.0008905 -1.21098e-06)
(-0.00648149 -0.00152296 -1.34448e-06)
(-0.00600858 -0.00213049 -1.50506e-06)
(-0.00537681 -0.0026977 -1.64462e-06)
(-0.00459617 -0.0032075 -1.67659e-06)
(-0.00368209 -0.00364152 -1.4409e-06)
(-0.00265622 -0.00397947 -6.64548e-07)
(-0.00153221 -0.00416554 1.0157e-06)
(-0.000472908 -0.00359334 6.94724e-06)
(-0.000499541 0.00443995 -1.32106e-05)
(-0.00162244 0.00516269 -7.23239e-06)
(-0.00281983 0.00495426 -5.19869e-06)
(-0.00391896 0.00456853 -3.92045e-06)
(-0.00490869 0.00406906 -3.11922e-06)
(-0.0057671 0.00347604 -2.57119e-06)
(-0.00647783 0.00280757 -2.166e-06)
(-0.00702924 0.0020806 -1.85987e-06)
(-0.00741318 0.00131056 -1.63782e-06)
(-0.00762397 0.000511486 -1.49709e-06)
(-0.00765755 -0.000303471 -1.43885e-06)
(-0.00751114 -0.00112111 -1.45979e-06)
(-0.0071834 -0.00192709 -1.55396e-06)
(-0.00667487 -0.00270505 -1.6966e-06)
(-0.00598911 -0.00343584 -1.83719e-06)
(-0.00513416 -0.00409727 -1.87911e-06)
(-0.00412449 -0.00466456 -1.63819e-06)
(-0.00298264 -0.00510951 -7.95876e-07)
(-0.00172389 -0.00535772 1.06675e-06)
(-0.000532748 -0.0046279 7.73192e-06)
(-0.000565631 0.00553876 -1.57252e-05)
(-0.00183525 0.00643441 -9.00195e-06)
(-0.00318466 0.00616593 -6.67995e-06)
(-0.00441691 0.00567575 -5.18247e-06)
(-0.00552 0.00504566 -4.20997e-06)
(-0.00647112 0.004303 -3.51278e-06)
(-0.0072548 0.00347156 -2.97049e-06)
(-0.00786121 0.0025726 -2.5375e-06)
(-0.00828417 0.00162447 -2.20036e-06)
(-0.00851948 0.00064295 -1.95945e-06)
(-0.00856371 -0.000357819 -1.82028e-06)
(-0.00841344 -0.00136397 -1.78209e-06)
(-0.00806543 -0.00236007 -1.84663e-06)
(-0.00751733 -0.00332771 -1.99201e-06)
(-0.00676904 -0.00424413 -2.16582e-06)
(-0.00582501 -0.00508145 -2.25901e-06)
(-0.00469727 -0.00580689 -2.05479e-06)
(-0.00340845 -0.00638167 -1.16978e-06)
(-0.00197555 -0.00670792 8.95585e-07)
(-0.000611663 -0.00580347 8.52011e-06)
(-0.000650153 0.00679145 -1.90371e-05)
(-0.00210623 0.00788047 -1.13645e-05)
(-0.00364632 0.00753661 -8.65871e-06)
(-0.00504229 0.00692003 -6.85316e-06)
(-0.00628156 0.0061354 -5.63157e-06)
(-0.00734122 0.00521976 -4.7153e-06)
(-0.00820824 0.00420412 -3.9745e-06)
(-0.00887633 0.00311463 -3.3626e-06)
(-0.00934283 0.00197228 -2.86804e-06)
(-0.00960627 0.000793711 -2.49451e-06)
(-0.00966448 -0.000407284 -2.25236e-06)
(-0.00951339 -0.00161777 -2.14337e-06)
(-0.00914713 -0.00282277 -2.18002e-06)
(-0.00855894 -0.0040031 -2.34754e-06)
(-0.00774286 -0.00513297 -2.59418e-06)
(-0.00669708 -0.00617833 -2.7977e-06)
(-0.00542842 -0.0070964 -2.69929e-06)
(-0.00395774 -0.00783395 -1.82462e-06)
(-0.00230316 -0.00826234 4.40106e-07)
(-0.000715042 -0.00716336 9.29298e-06)
(-0.000758275 0.00823993 -2.34994e-05)
(-0.00245063 0.00954595 -1.46218e-05)
(-0.00422782 0.00910361 -1.13845e-05)
(-0.00582182 0.0083293 -9.1231e-06)
(-0.00722041 0.00735737 -7.51907e-06)
(-0.00840241 0.00623828 -6.26483e-06)
(-0.00935995 0.00501225 -5.22356e-06)
(-0.0100931 0.00371084 -4.34841e-06)
(-0.0106051 0.0023571 -3.62894e-06)
(-0.0108991 0.000967011 -3.07118e-06)
(-0.0109752 -0.000448 -2.68941e-06)
(-0.0108289 -0.00187834 -2.48748e-06)
(-0.0104508 -0.00331205 -2.49104e-06)
(-0.00982753 -0.00473135 -2.70121e-06)
(-0.00894428 -0.00610885 -3.07422e-06)
(-0.00778864 -0.00740433 -3.47819e-06)
(-0.00635751 -0.00856278 -3.60409e-06)
(-0.00466595 -0.00951113 -2.84982e-06)
(-0.00273114 -0.0100789 -4.23591e-07)
(-0.000851395 -0.0087639 9.95354e-06)
(-0.000898123 0.00993841 -2.96567e-05)
(-0.0028916 0.0114871 -1.9239e-05)
(-0.00496272 0.0109107 -1.52202e-05)
(-0.00679295 0.00993328 -1.22475e-05)
(-0.00837275 0.0087289 -1.00322e-05)
(-0.00968637 0.00736664 -8.24287e-06)
(-0.0107357 0.00589837 -6.73924e-06)
(-0.0115315 0.00436134 -5.47288e-06)
(-0.0120867 0.00277935 -4.43078e-06)
(-0.0124114 0.00116543 -3.6165e-06)
(-0.0125098 -0.000474426 -3.04402e-06)
(-0.0123775 -0.00213742 -2.71695e-06)
(-0.0120001 -0.00381849 -2.67561e-06)
(-0.0113557 -0.00550503 -2.94604e-06)
(-0.0104158 -0.00717097 -3.51384e-06)
(-0.00915126 -0.00877107 -4.25298e-06)
(-0.00754094 -0.0102362 -4.80492e-06)
(-0.00558616 -0.0114663 -4.39444e-06)
(-0.00329804 -0.0122322 -1.93689e-06)
(-0.00103476 -0.0106818 1.02576e-05)
(-0.00108308 0.0119603 -3.84005e-05)
(-0.00346543 0.0137759 -2.59782e-05)
(-0.005901 0.0130097 -2.07122e-05)
(-0.00800887 0.0117623 -1.65718e-05)
(-0.00978726 0.0102627 -1.33488e-05)
(-0.011233 0.00860559 -1.07002e-05)
(-0.0123653 0.00685696 -8.48271e-06)
(-0.0132121 0.00505935 -6.64021e-06)
(-0.013801 0.00323493 -5.14567e-06)
(-0.0141529 0.00139006 -3.98496e-06)
(-0.0142781 -0.000479085 -3.15993e-06)
(-0.014173 -0.00238121 -2.66971e-06)
(-0.0138184 -0.00432354 -2.56669e-06)
(-0.01318 -0.0063046 -2.90786e-06)
(-0.0122103 -0.0083055 -3.74006e-06)
(-0.0108541 -0.0102797 -4.9942e-06)
(-0.00905986 -0.0121435 -6.30202e-06)
(-0.0067996 -0.0137621 -6.67006e-06)
(-0.00406701 -0.0148214 -4.47741e-06)
(-0.00128953 -0.0130275 9.66262e-06)
(-0.00133641 0.0144103 -5.12591e-05)
(-0.00423122 0.0165072 -3.61323e-05)
(-0.0071187 0.0154617 -2.8681e-05)
(-0.00954614 0.013844 -2.25387e-05)
(-0.0115297 0.0119617 -1.7617e-05)
(-0.0130922 0.00994277 -1.35801e-05)
(-0.014282 0.00786952 -1.02733e-05)
(-0.0151536 0.00578753 -7.61032e-06)
(-0.015756 0.00371266 -5.51369e-06)
(-0.0161254 0.00163921 -3.91402e-06)
(-0.0162811 -0.000452419 -2.7784e-06)
(-0.0162219 -0.00258861 -2.06703e-06)
(-0.0159236 -0.00479603 -1.85934e-06)
(-0.0153377 -0.00709273 -2.24826e-06)
(-0.014391 -0.00947683 -3.40123e-06)
(-0.0129896 -0.0119106 -5.39608e-06)
(-0.0110321 -0.0142999 -7.95338e-06)
(-0.0084332 -0.0164692 -9.93252e-06)
(-0.00514624 -0.0179795 -8.58978e-06)
(-0.00166107 -0.0159689 6.96902e-06)
(-0.00170107 0.0174468 -7.09816e-05)
(-0.00528908 0.0198077 -5.19295e-05)
(-0.00873362 0.0183368 -4.02988e-05)
(-0.0115161 0.0161966 -3.06196e-05)
(-0.0136888 0.0138093 -2.27944e-05)
(-0.0153253 0.0113441 -1.65394e-05)
(-0.0165206 0.00889832 -1.16391e-05)
(-0.017369 0.00651357 -7.88923e-06)
(-0.0179494 0.00419143 -5.06178e-06)
(-0.018318 0.00190675 -2.97139e-06)
(-0.0185059 -0.00038304 -1.47075e-06)
(-0.0185166 -0.00272953 -4.67635e-07)
(-0.0183225 -0.00518763 -3.78205e-08)
(-0.0178608 -0.00780639 -3.70572e-07)
(-0.0170282 -0.0106159 -1.79973e-06)
(-0.0156776 -0.0136057 -4.69367e-06)
(-0.0136296 -0.0166907 -9.2069e-06)
(-0.0106888 -0.0196601 -1.43837e-05)
(-0.00672964 -0.0218816 -1.49989e-05)
(-0.00223938 -0.0197815 -3.69778e-07)
(-0.00226184 0.0213097 -0.000102492)
(-0.00681671 0.0238399 -7.70374e-05)
(-0.0109313 0.0217089 -5.69808e-05)
(-0.0140822 0.0188135 -4.09894e-05)
(-0.0163827 0.0157544 -2.82144e-05)
(-0.0180034 0.0127421 -1.85803e-05)
(-0.0191126 0.00987761 -1.15647e-05)
(-0.0198605 0.00718395 -6.5571e-06)
(-0.0203629 0.00463613 -2.98925e-06)
(-0.0206999 0.00217964 -4.19939e-07)
(-0.0209175 -0.000258629 1.50941e-06)
(-0.0210266 -0.00276392 2.99373e-06)
(-0.0210005 -0.00542842 3.93654e-06)
(-0.020766 -0.00834655 4.02639e-06)
(-0.0201902 -0.0116019 2.61961e-06)
(-0.0190649 -0.0152425 -1.14055e-06)
(-0.0171004 -0.0192334 -8.32281e-06)
(-0.0138888 -0.0233818 -1.98922e-05)
(-0.00918465 -0.0267342 -2.49225e-05)
(-0.00322144 -0.0249703 -1.71875e-05)
(-0.00318436 0.026589 -0.000159401)
(-0.00912681 0.0288552 -0.000118401)
(-0.0139992 0.0256476 -7.98591e-05)
(-0.017481 0.0216342 -5.24859e-05)
(-0.0197609 0.0176873 -3.15482e-05)
(-0.0212022 0.0140177 -1.73215e-05)
(-0.0220788 0.010701 -7.96845e-06)
(-0.0226105 0.00771627 -1.92114e-06)
(-0.0229537 0.00499283 2.0608e-06)
(-0.0232127 0.00243462 5.02616e-06)
(-0.0234494 -6.98878e-05 7.62318e-06)
(-0.0236864 -0.00264322 9.67885e-06)
(-0.0239051 -0.00542494 1.17383e-05)
(-0.0240343 -0.00856876 1.32887e-05)
(-0.023924 -0.012239 1.3242e-05)
(-0.0233094 -0.0165892 9.62383e-06)
(-0.0217857 -0.0217061 -4.71636e-07)
(-0.0185352 -0.0275645 -2.43343e-05)
(-0.0132599 -0.0327043 -3.68226e-05)
(-0.00509121 -0.0324667 -5.71634e-05)
(-0.00499184 0.0326991 -0.000238767)
(-0.0130269 0.0346923 -0.000174599)
(-0.0184342 0.0300489 -0.000103223)
(-0.0220552 0.0244747 -5.89982e-05)
(-0.0239991 0.0193955 -2.6445e-05)
(-0.0249886 0.0149735 -7.34228e-06)
(-0.0254124 0.0112084 3.37395e-06)
(-0.0255667 0.00799309 9.25907e-06)
(-0.0256421 0.00518642 1.27085e-05)
(-0.0257599 0.00263705 1.52783e-05)
(-0.0259923 0.000190666 1.7863e-05)
(-0.0263783 -0.00231529 2.14252e-05)
(-0.0269223 -0.00506373 2.5975e-05)
(-0.0275757 -0.00827683 3.1378e-05)
(-0.0282054 -0.0122262 3.63553e-05)
(-0.0285261 -0.0172327 3.78074e-05)
(-0.0280857 -0.0236308 3.00532e-05)
(-0.0253522 -0.0319547 -1.29082e-05)
(-0.0204517 -0.0397503 -2.96208e-05)
(-0.00896592 -0.0438978 -0.000143571)
(-0.00731258 0.0475703 -0.000540545)
(-0.0183124 0.043065 -0.000304955)
(-0.0245356 0.0353526 -0.000130851)
(-0.02814 0.0271253 -4.70521e-05)
(-0.0292331 0.0205341 1.86171e-06)
(-0.0293473 0.0152988 2.30651e-05)
(-0.0290072 0.0111659 3.09868e-05)
(-0.0285725 0.00785538 3.29311e-05)
(-0.0282429 0.00511632 3.31309e-05)
(-0.0281356 0.00273114 3.389e-05)
(-0.028323 0.000505713 3.67127e-05)
(-0.0288557 -0.00174659 4.22831e-05)
(-0.0297739 -0.00424144 5.1976e-05)
(-0.0310936 -0.00727345 6.66907e-05)
(-0.0327602 -0.0112571 8.65825e-05)
(-0.0345676 -0.0168305 0.00010856)
(-0.0363203 -0.0247436 0.00012605)
(-0.0350598 -0.0368873 5.09722e-05)
(-0.0330688 -0.0492568 6.01889e-05)
(-0.0166228 -0.064252 -0.000320363)
(-0.0177029 0.0519997 -0.000570854)
(-0.034478 0.0501983 -0.000377363)
(-0.0343228 0.039319 -4.54643e-05)
(-0.0362674 0.0287177 4.27715e-05)
(-0.0349048 0.0206599 9.18901e-05)
(-0.0332243 0.0147262 9.85229e-05)
(-0.0315663 0.0104135 9.05144e-05)
(-0.0302092 0.00721086 7.93887e-05)
(-0.0292673 0.00473449 7.06558e-05)
(-0.0287941 0.00270288 6.651e-05)
(-0.0288215 0.000895968 6.79339e-05)
(-0.029403 -0.000883955 7.7586e-05)
(-0.0306395 -0.00282724 9.68976e-05)
(-0.0326642 -0.00519693 0.000127785)
(-0.0356588 -0.00836521 0.000171942)
(-0.0396061 -0.0131031 0.00021952)
(-0.0451677 -0.0198038 0.000286029)
(-0.046608 -0.0347705 0.00014299)
(-0.0519133 -0.0483802 0.000221883)
(-0.0249939 -0.090638 -0.000544342)
(-0.0386705 0.115111 -0.0013475)
(-0.0425972 0.0533068 -8.22431e-05)
(-0.0357743 0.0389779 0.000288395)
(-0.0300044 0.0250575 0.000408244)
(-0.0227254 0.0162845 0.000376672)
(-0.0170065 0.0110581 0.000296634)
(-0.0126182 0.0076094 0.000227179)
(-0.00944952 0.00520481 0.000176306)
(-0.00729269 0.00345474 0.00014354)
(-0.0059902 0.00209917 0.000126976)
(-0.00545294 0.000956567 0.000125675)
(-0.00563965 -0.000128859 0.000139997)
(-0.00657606 -0.00132194 0.000178627)
(-0.00830056 -0.00289027 0.00025252)
(-0.011024 -0.00532185 0.000390969)
(-0.0137209 -0.0101799 0.000586128)
(-0.0211559 -0.0190633 0.00107394)
(-0.0166582 -0.0415638 0.000946054)
(-0.0382396 -0.0760441 0.0017596)
(0.00140621 -0.164107 -0.000730426)
(0.122497 0.107874 -0.00189111)
(0.131332 0.048225 -0.00141435)
(0.194639 0.0286685 -0.000295888)
(0.217648 0.0168229 0.000221547)
(0.232619 0.00962251 0.000320081)