/*--------------------------------*- C++ -*----------------------------------*\
  =========                 |
  \\      /  F ield         | OpenFOAM: The Open Source CFD Toolbox
   \\    /   O peration     | Website:  https://openfoam.org
    \\  /    A nd           | Version:  10
     \\/     M anipulation  |
\*---------------------------------------------------------------------------*/
FoamFile
{
    format      ascii;
    class       volVectorField;
    location    "1.75";
    object      U;
}
// * * * * * * * * * * * * * * * * * * * * * * * * * * * * * * * * * * * * * //

dimensions      [0 1 -1 0 0 0 0];

internalField   nonuniform List<vector> 
8000
(
(-0.000232415 0.000233005 -3.88123e-06)
(-0.000868443 0.00031832 9.21484e-06)
(-0.00163486 0.000314863 1.17773e-05)
(-0.00233976 0.000295314 1.25305e-05)
(-0.00299283 0.000268212 1.1911e-05)
(-0.00357519 0.000234701 1.04653e-05)
(-0.00407178 0.000195404 8.47529e-06)
(-0.00446985 0.000151002 6.06812e-06)
(-0.00475844 0.000102258 3.31809e-06)
(-0.00492856 5.00154e-05 2.59354e-07)
(-0.0049734 -4.66658e-06 -2.97808e-06)
(-0.00488848 -6.09422e-05 -6.33795e-06)
(-0.00467213 -0.000117324 -9.74444e-06)
(-0.00432604 -0.000172304 -1.30711e-05)
(-0.00385562 -0.000224161 -1.61423e-05)
(-0.00327056 -0.000270993 -1.86995e-05)
(-0.00258571 -0.000310766 -2.02915e-05)
(-0.00182364 -0.000340836 -2.01523e-05)
(-0.000979789 -0.000350749 -1.75848e-05)
(-0.000266388 -0.000261638 -2.66176e-06)
(-0.000327744 0.00088057 -1.8726e-05)
(-0.00118948 0.00116705 -5.35941e-06)
(-0.002206 0.00115171 -1.89112e-06)
(-0.0031425 0.00107869 1.46332e-07)
(-0.00400824 0.000977553 1.00947e-06)
(-0.00477827 0.000852811 1.2008e-06)
(-0.00543286 0.00070714 1.00474e-06)
(-0.0059555 0.000543312 5.06427e-07)
(-0.00633224 0.000364308 -2.65823e-07)
(-0.00655174 0.000173327 -1.26858e-06)
(-0.00660587 -2.62644e-05 -2.50768e-06)
(-0.0064892 -0.000230298 -3.89261e-06)
(-0.00619972 -0.000434053 -5.42842e-06)
(-0.00574009 -0.000632264 -7.01831e-06)
(-0.00511752 -0.000818857 -8.511e-06)
(-0.00434465 -0.000987111 -9.6589e-06)
(-0.00344085 -0.00112978 -9.98736e-06)
(-0.00243532 -0.0012373 -8.687e-06)
(-0.00132508 -0.00127369 -5.16933e-06)
(-0.000369263 -0.000974831 1.07812e-05)
(-0.000350574 0.00170496 -2.39205e-05)
(-0.00127233 0.0022252 -1.02278e-05)
(-0.00235856 0.0021927 -6.42253e-06)
(-0.00335795 0.00205201 -3.96277e-06)
(-0.00428142 0.00185763 -2.65963e-06)
(-0.0051027 0.00161841 -1.95912e-06)
(-0.00580116 0.00133982 -1.60097e-06)
(-0.00635964 0.00102736 -1.50985e-06)
(-0.00676368 0.000686805 -1.6687e-06)
(-0.00700169 0.000324249 -2.06897e-06)
(-0.00706451 -5.38766e-05 -2.69878e-06)
(-0.00694583 -0.000440087 -3.53277e-06)
(-0.00664331 -0.00082574 -4.56091e-06)
(-0.0061587 -0.00120101 -5.69022e-06)
(-0.00549846 -0.00155461 -6.77393e-06)
(-0.0046749 -0.00187387 -7.56031e-06)
(-0.00370776 -0.002145 -7.54881e-06)
(-0.00262797 -0.00234967 -5.87489e-06)
(-0.00143168 -0.00242135 -1.96e-06)
(-0.000399294 -0.00187877 1.48261e-05)
(-0.000372699 0.00255171 -2.8136e-05)
(-0.00135462 0.00331611 -1.38366e-05)
(-0.00251239 0.00326513 -9.72942e-06)
(-0.00357648 0.0030544 -6.93861e-06)
(-0.00455955 0.0027642 -5.32828e-06)
(-0.0054341 0.00240791 -4.30797e-06)
(-0.00617888 0.00199381 -3.61285e-06)
(-0.00677637 0.00153017 -3.17278e-06)
(-0.00721175 0.00102544 -2.97905e-06)
(-0.00747288 0.000488371 -3.04041e-06)
(-0.00755017 -7.15749e-05 -3.37247e-06)
(-0.00743604 -0.000644508 -3.9048e-06)
(-0.00712627 -0.00121798 -4.66922e-06)
(-0.00662111 -0.00177774 -5.58353e-06)
(-0.00592529 -0.00230716 -6.49558e-06)
(-0.00504978 -0.00278726 -7.13723e-06)
(-0.00401392 -0.00319688 -6.96257e-06)
(-0.00285039 -0.00350781 -5.01822e-06)
(-0.00155491 -0.00362052 -6.94409e-07)
(-0.000433861 -0.00282196 1.74219e-05)
(-0.000403318 0.00346365 -3.23985e-05)
(-0.00146754 0.00449192 -1.71164e-05)
(-0.00272271 0.00442035 -1.26634e-05)
(-0.00387482 0.00413368 -9.55575e-06)
(-0.00493861 0.00374029 -7.69269e-06)
(-0.00588502 0.0032587 -6.44239e-06)
(-0.00669217 0.00270042 -5.5258e-06)
(-0.00734229 0.00207662 -4.87286e-06)
(-0.00782037 0.00139838 -4.48051e-06)
(-0.00811381 0.000676876 -4.36854e-06)
(-0.00821234 -7.62101e-05 -4.5672e-06)
(-0.00810666 -0.000848449 -4.96386e-06)
(-0.00779008 -0.00162424 -5.64008e-06)
(-0.00726023 -0.00238523 -6.51758e-06)
(-0.00651891 -0.00310934 -7.43398e-06)
(-0.00557451 -0.00377049 -8.09202e-06)
(-0.00444515 -0.00433867 -7.87414e-06)
(-0.00316539 -0.00477332 -5.6874e-06)
(-0.00173068 -0.00493693 -8.36452e-07)
(-0.000483648 -0.00385951 1.93513e-05)
(-0.000444022 0.0044633 -3.7443e-05)
(-0.00161706 0.00578132 -2.07952e-05)
(-0.00300033 0.00568594 -1.59141e-05)
(-0.00426745 0.00531495 -1.24355e-05)
(-0.00543594 0.0048081 -1.02993e-05)
(-0.00647488 0.00419005 -8.82193e-06)
(-0.00736192 0.00347611 -7.70567e-06)
(-0.00807942 0.00268062 -6.87841e-06)
(-0.00861255 0.00181719 -6.34111e-06)
(-0.00894853 0.000898981 -6.12519e-06)
(-0.00907652 -6.05674e-05 -6.28636e-06)
(-0.00898505 -0.00104786 -6.62972e-06)
(-0.00866397 -0.00204458 -7.32874e-06)
(-0.00810704 -0.00302899 -8.2992e-06)
(-0.00731133 -0.00397355 -9.36709e-06)
(-0.00628067 -0.00484423 -1.0193e-05)
(-0.00503023 -0.00560015 -1.00554e-05)
(-0.00359603 -0.00618469 -7.65384e-06)
(-0.00197285 -0.00641473 -2.14302e-06)
(-0.00055278 -0.00502857 2.09921e-05)
(-0.000496189 0.00557586 -4.38812e-05)
(-0.00180824 0.00721639 -2.54792e-05)
(-0.00335413 0.00709216 -2.00466e-05)
(-0.00476577 0.0066251 -1.60758e-05)
(-0.0060644 0.00599083 -1.35723e-05)
(-0.00721714 0.00522161 -1.17936e-05)
(-0.0082017 0.00433745 -1.04224e-05)
(-0.00900131 0.00335623 -9.3847e-06)
(-0.00960211 0.00229394 -8.68462e-06)
(-0.00999167 0.00116501 -8.37062e-06)
(-0.0101593 -1.67747e-05 -8.59726e-06)
(-0.0100908 -0.00123635 -8.87541e-06)
(-0.00977129 -0.0024759 -9.69e-06)
(-0.00918927 -0.00371118 -1.0883e-05)
(-0.00833429 -0.00490962 -1.2272e-05)
(-0.00720243 -0.00602851 -1.34658e-05)
(-0.0058026 -0.00701344 -1.35977e-05)
(-0.00417058 -0.00778644 -1.10634e-05)
(-0.00229926 -0.00810723 -4.76567e-06)
(-0.000646837 -0.00637483 2.23898e-05)
(-0.000561827 0.00683153 -5.23355e-05)
(-0.00204815 0.00883521 -3.17495e-05)
(-0.00379622 0.00867414 -2.55825e-05)
(-0.00538488 0.00809441 -2.09132e-05)
(-0.00684046 0.00731363 -1.78614e-05)
(-0.00812835 0.00637394 -1.56244e-05)
(-0.00922736 0.00530133 -1.38694e-05)
(-0.010123 0.00411778 -1.2521e-05)
(-0.0108038 0.00284145 -1.15769e-05)
(-0.0112593 0.00148713 -1.10388e-05)
(-0.0114779 6.75464e-05 -1.08005e-05)
(-0.0114442 -0.00140331 -1.1607e-05)
(-0.0111388 -0.00291015 -1.27364e-05)
(-0.0105408 -0.0044287 -1.43369e-05)
(-0.0096288 -0.00592305 -1.62914e-05)
(-0.00838617 -0.0073416 -1.81737e-05)
(-0.0068098 -0.00861349 -1.89208e-05)
(-0.00493087 -0.00963195 -1.64842e-05)
(-0.00273752 -0.010082 -9.32676e-06)
(-0.000774843 -0.0079584 2.32151e-05)
(-0.000644041 0.00826686 -6.36521e-05)
(-0.00234727 0.0106831 -4.03718e-05)
(-0.00434392 0.0104723 -3.31787e-05)
(-0.00614567 0.00975611 -2.74626e-05)
(-0.0077861 0.00880266 -2.35437e-05)
(-0.00922957 0.00766716 -2.057e-05)
(-0.0104579 0.0063835 -1.82041e-05)
(-0.0114613 0.00497852 -1.6374e-05)
(-0.0122328 0.00347224 -1.50775e-05)
(-0.0127656 0.00187862 -1.42932e-05)
(-0.0130497 0.000207406 -1.38589e-05)
(-0.0130685 -0.00153284 -1.49832e-05)
(-0.0127967 -0.00333175 -1.65163e-05)
(-0.0122022 -0.00516944 -1.87556e-05)
(-0.0112474 -0.00701041 -2.1646e-05)
(-0.00989501 -0.00879577 -2.47483e-05)
(-0.00812024 -0.0104356 -2.67549e-05)
(-0.00594006 -0.0117846 -2.49749e-05)
(-0.00333172 -0.0124261 -1.70416e-05)
(-0.0009521 -0.00986108 2.259e-05)
(-0.00074784 0.00992798 -7.91448e-05)
(-0.00272152 0.0128156 -5.25103e-05)
(-0.00502243 0.012534 -4.37802e-05)
(-0.00707753 0.0116468 -3.64084e-05)
(-0.00893087 0.0104842 -3.10629e-05)
(-0.0105477 0.00911942 -2.68755e-05)
(-0.0119161 0.00759672 -2.35213e-05)
(-0.0130344 0.00594877 -2.09355e-05)
(-0.0139038 0.00419704 -1.91266e-05)
(-0.0145242 0.00235282 -1.81318e-05)
(-0.0148894 0.000419719 -1.80622e-05)
(-0.0149835 -0.00160249 -1.89832e-05)
(-0.0147755 -0.00371459 -2.09607e-05)
(-0.0142195 -0.00590742 -2.41547e-05)
(-0.0132553 -0.00815289 -2.85568e-05)
(-0.011814 -0.0103904 -3.37477e-05)
(-0.00983296 -0.0125106 -3.81947e-05)
(-0.0072952 -0.0143189 -3.83337e-05)
(-0.00415484 -0.0152536 -3.01033e-05)
(-0.00120599 -0.0122003 1.83732e-05)
(-0.000881766 0.0118762 -0.000101004)
(-0.00319602 0.015303 -7.00541e-05)
(-0.00586933 0.014916 -5.88131e-05)
(-0.00822248 0.0138061 -4.86807e-05)
(-0.0103151 0.0123832 -4.09169e-05)
(-0.0121173 0.0107443 -3.47065e-05)
(-0.0136288 0.00894768 -2.97502e-05)
(-0.0148611 0.00703295 -2.59734e-05)
(-0.015829 0.00502219 -2.33585e-05)
(-0.0165431 0.00292172 -2.19294e-05)
(-0.0170052 0.000725254 -2.17918e-05)
(-0.0172029 -0.00158178 -2.29554e-05)
(-0.0171018 -0.00401848 -2.56593e-05)
(-0.0166406 -0.0065963 -3.02789e-05)
(-0.0157306 -0.00930664 -3.70438e-05)
(-0.0142562 -0.0120999 -4.57334e-05)
(-0.0120922 -0.0148547 -5.47055e-05)
(-0.00914825 -0.0173194 -5.9486e-05)
(-0.00533303 -0.018717 -5.22918e-05)
(-0.00158853 -0.0151548 5.91949e-06)
(-0.0010613 0.0141977 -0.000133097)
(-0.00381202 0.0182374 -9.6188e-05)
(-0.0069419 0.0176869 -8.04557e-05)
(-0.00964177 0.0162762 -6.54911e-05)
(-0.0119947 0.0145196 -5.35315e-05)
(-0.0139835 0.0125461 -4.39396e-05)
(-0.0156277 0.010432 -3.64219e-05)
(-0.0169601 0.00822465 -3.08263e-05)
(-0.0180153 0.00594532 -2.70151e-05)
(-0.0188214 0.00359228 -2.49003e-05)
(-0.0193931 0.0011447 -2.45374e-05)
(-0.0197273 -0.0014325 -2.6026e-05)
(-0.0197901 -0.00418584 -2.96882e-05)
(-0.0195077 -0.00716119 -3.62556e-05)
(-0.0187592 -0.0103885 -4.64768e-05)
(-0.0173665 -0.0138534 -6.07489e-05)
(-0.0151079 -0.0174459 -7.77706e-05)
(-0.0117416 -0.0208715 -9.28028e-05)
(-0.00709471 -0.0230183 -8.97684e-05)
(-0.00220503 -0.0190143 -2.5392e-05)
(-0.00131649 0.017026 -0.000182703)
(-0.00464043 0.0217445 -0.000136522)
(-0.00832937 0.020931 -0.000112)
(-0.011426 0.0190984 -8.81824e-05)
(-0.0140474 0.0169026 -6.88113e-05)
(-0.0162053 0.0145127 -5.36164e-05)
(-0.0179505 0.0120268 -4.21421e-05)
(-0.0193481 0.00949961 -3.39385e-05)
(-0.0204615 0.00694895 -2.8516e-05)
(-0.0213439 0.00436106 -2.54713e-05)
(-0.0220301 0.00169534 -2.47436e-05)
(-0.0225336 -0.00111052 -2.64147e-05)
(-0.0228306 -0.00413959 -3.10116e-05)
(-0.0228433 -0.00748954 -3.9794e-05)
(-0.022423 -0.0112564 -5.44454e-05)
(-0.0213192 -0.015503 -7.67259e-05)
(-0.0191819 -0.0201815 -0.000107091)
(-0.0154683 -0.025035 -0.00014352)
(-0.00987176 -0.0284125 -0.000152042)
(-0.00327956 -0.0242795 -0.000100116)
(-0.00171061 0.0205238 -0.000262442)
(-0.00581274 0.0259724 -0.000199594)
(-0.0101755 0.024741 -0.000157566)
(-0.0137116 0.0223036 -0.000117282)
(-0.0165828 0.0195187 -8.4785e-05)
(-0.0188597 0.0166027 -6.05716e-05)
(-0.0206409 0.0136792 -4.33645e-05)
(-0.022038 0.0108059 -3.1806e-05)
(-0.0231539 0.00799149 -2.45279e-05)
(-0.024075 0.00520507 -2.03615e-05)
(-0.0248647 0.0023823 -1.89991e-05)
(-0.0255623 -0.00057223 -2.01942e-05)
(-0.0261692 -0.00378687 -2.50883e-05)
(-0.0266245 -0.00742652 -3.53412e-05)
(-0.0267726 -0.011688 -5.40901e-05)
(-0.026299 -0.0167785 -8.5302e-05)
(-0.0247331 -0.0228039 -0.000134913)
(-0.0209618 -0.0297601 -0.000214253)
(-0.0145095 -0.0351203 -0.000254189)
(-0.00531719 -0.0319444 -0.000275037)
(-0.00234081 0.0253898 -0.000419856)
(-0.00751778 0.0312786 -0.00030968)
(-0.0126865 0.029272 -0.000224782)
(-0.0166953 0.0259085 -0.000150359)
(-0.0197506 0.0223138 -9.4001e-05)
(-0.0220447 0.0187273 -5.59455e-05)
(-0.0237468 0.0152908 -3.14351e-05)
(-0.0250349 0.0120516 -1.66125e-05)
(-0.0260612 0.00899738 -7.94371e-06)
(-0.0269516 0.00607216 -3.09013e-06)
(-0.0278057 0.00318425 -1.13137e-06)
(-0.0287008 0.000202328 -6.54484e-07)
(-0.0296825 -0.00303993 -3.47765e-06)
(-0.0307416 -0.00678701 -1.10641e-05)
(-0.0317715 -0.0113707 -2.79546e-05)
(-0.0324417 -0.017234 -6.15986e-05)
(-0.0322767 -0.0247427 -0.000129179)
(-0.0291546 -0.0346679 -0.00028025)
(-0.0227447 -0.0430565 -0.000381369)
(-0.00958527 -0.0438203 -0.000670595)
(-0.0037955 0.0302756 -0.000613469)
(-0.0106392 0.0373447 -0.000467438)
(-0.0163503 0.0344204 -0.000301177)
(-0.0207209 0.0298115 -0.000167913)
(-0.0237616 0.02514 -7.18597e-05)
(-0.0258756 0.0207116 -1.58599e-05)
(-0.0273053 0.0166903 1.42569e-05)
(-0.0283162 0.0130862 2.82778e-05)
(-0.0291142 0.00984487 3.42135e-05)
(-0.029865 0.00687488 3.67444e-05)
(-0.0307074 0.00406032 3.84127e-05)
(-0.0317548 0.00125853 4.0579e-05)
(-0.0331212 -0.00172982 5.13226e-05)
(-0.0349105 -0.00523873 5.90911e-05)
(-0.0371619 -0.00967448 6.94899e-05)
(-0.0396109 -0.0159243 7.11163e-05)
(-0.0421808 -0.0244531 4.056e-05)
(-0.0410784 -0.0388168 -0.000190015)
(-0.037389 -0.0517491 -0.000326834)
(-0.0183098 -0.0637213 -0.00138188)
(-0.00467463 0.0441279 -0.00128257)
(-0.0135804 0.0455876 -0.000713942)
(-0.0211042 0.040484 -0.000376833)
(-0.0260075 0.0334867 -9.98724e-05)
(-0.0287672 0.0273832 5.75604e-05)
(-0.0303502 0.0220558 0.000120327)
(-0.0311695 0.0175012 0.00013838)
(-0.0316242 0.0136197 0.000135439)
(-0.031968 0.0102989 0.000126329)
(-0.0323867 0.00740794 0.000118818)
(-0.0330287 0.00479749 0.000118568)
(-0.0340507 0.00227925 0.00013022)
(-0.0356829 -0.000388861 0.000157247)
(-0.038108 -0.00357384 0.000204092)
(-0.0417444 -0.00774261 0.000304529)
(-0.0462723 -0.0142836 0.000471216)
(-0.0537967 -0.0239545 0.000689347)
(-0.0566114 -0.0434436 0.000522948)
(-0.0603878 -0.0640651 0.000522702)
(-0.0312049 -0.0984786 -0.0020871)
(-0.0138745 0.0462529 -0.00201751)
(-0.0285438 0.0583261 -0.00153898)
(-0.029169 0.0491563 -0.000558046)
(-0.033074 0.0395138 -3.58071e-05)
(-0.0334691 0.0309077 0.000281793)
(-0.0332338 0.023743 0.000388293)
(-0.0325554 0.0181367 0.000397875)
(-0.0318004 0.0137796 0.000362948)
(-0.0311767 0.010378 0.000318088)
(-0.0308556 0.00767248 0.000280613)
(-0.0310042 0.00547976 0.000259664)
(-0.0317967 0.00364577 0.000263105)
(-0.0334921 0.00210417 0.000310771)
(-0.0363162 0.00058704 0.000444539)
(-0.0412092 -0.000370396 0.000754537)
(-0.0475116 -0.00516188 0.00126152)
(-0.0597483 -0.0079909 0.00227105)
(-0.0638225 -0.0356611 0.00270891)
(-0.0772348 -0.0619284 0.00342863)
(-0.0287908 -0.151122 -0.00224125)
(-0.0444547 0.105934 -0.00419476)
(-0.0369597 0.0545095 -0.00035828)
(-0.0313557 0.0439499 0.000779631)
(-0.0224266 0.0323197 0.00161463)
(-0.0140061 0.023322 0.00174898)
(-0.007055 0.0173324 0.00152599)
(-0.00131274 0.013122 0.00123429)
(0.00315498 0.00997876 0.000966921)
(0.00651812 0.00759495 0.000761474)
(0.00893999 0.0057771 0.000619845)
(0.0105477 0.00440224 0.000542518)
(0.0114963 0.00333944 0.000532238)
(0.011537 0.00262596 0.000632883)
(0.0118549 0.00173808 0.000896255)
(0.00817008 0.00079395 0.00148456)
(0.0105878 -0.00401007 0.00258611)
(-0.00380572 -0.0140634 0.00469207)
(0.00689054 -0.0496526 0.00610308)
(-0.0352508 -0.114688 0.00764179)
(0.0147538 -0.228922 -0.00597796)
(0.120648 0.112423 -0.00627578)
(0.144892 0.0586685 -0.00473119)
(0.212562 0.037663 -0.0027045)
(0.246638 0.0247194 -0.000703833)
(0.267699 0.015808 0.000439536)
(0.282133 0.0102511 0.000870867)
(0.292118 0.00697357 0.000961078)
(0.299076 0.00498347 0.000890573)
(0.304091 0.00367862 0.0007612)
(0.307836 0.00277084 0.000627786)
(0.310507 0.00212868 0.000547453)
(0.312712 0.00161218 0.000460635)
(0.313371 0.00117409 0.000566701)
(0.31549 0.000858955 0.000509732)
(0.311135 -0.000767069 0.00118055)
(0.316231 -0.000391879 0.0014236)
(0.291308 -0.0079789 0.00299217)
(0.297418 -0.0136254 0.00445549)
(0.187443 -0.0464824 -0.00160886)
(0.1688 -0.113533 -0.0182713)
(-0.000310093 0.000308005 -8.50924e-06)
(-0.00115562 0.000430751 7.92483e-06)
(-0.0021692 0.00042679 1.19445e-05)
(-0.00309621 0.000399541 1.36397e-05)
(-0.00395153 0.000361839 1.33744e-05)
(-0.00471126 0.000315399 1.1853e-05)
(-0.00535641 0.00026118 9.4619e-06)
(-0.00587084 0.000200181 6.38715e-06)
(-0.00624086 0.000133503 2.74681e-06)
(-0.00645533 6.23958e-05 -1.33962e-06)
(-0.00650608 -1.17981e-05 -5.82363e-06)
(-0.00638813 -8.77751e-05 -1.05392e-05)
(-0.00610003 -0.00016363 -1.53268e-05)
(-0.00564453 -0.000237363 -1.99752e-05)
(-0.00502908 -0.000306715 -2.4196e-05)
(-0.00426628 -0.000369211 -2.75803e-05)
(-0.00337483 -0.000422198 -2.94708e-05)
(-0.00238263 -0.000462035 -2.88461e-05)
(-0.0012807 -0.000473251 -2.49669e-05)
(-0.000347859 -0.000343817 -5.32552e-06)
(-0.000448812 0.00116284 -2.86474e-05)
(-0.00162004 0.00157432 -1.17125e-05)
(-0.00299214 0.00155592 -6.35541e-06)
(-0.0042504 0.00145469 -2.85222e-06)
(-0.0054089 0.0013147 -1.11339e-06)
(-0.00643527 0.00114275 -4.46504e-07)
(-0.00730393 0.000942747 -4.6814e-07)
(-0.00799357 0.00071871 -1.03897e-06)
(-0.00848636 0.000474881 -2.101e-06)
(-0.00876817 0.000215785 -3.60122e-06)
(-0.00882912 -5.39544e-05 -5.53628e-06)
(-0.00866313 -0.000328683 -7.74335e-06)
(-0.0082687 -0.000602137 -1.01652e-05)
(-0.00765012 -0.000867333 -1.26209e-05)
(-0.00681761 -0.00111632 -1.48417e-05)
(-0.00578806 -0.00134035 -1.64175e-05)
(-0.00458652 -0.00152999 -1.66444e-05)
(-0.00324987 -0.00167212 -1.4433e-05)
(-0.00177121 -0.00171378 -9.21496e-06)
(-0.000494454 -0.00128072 1.17183e-05)
(-0.000482382 0.00224747 -3.66397e-05)
(-0.00174018 0.00299354 -1.94497e-05)
(-0.00321161 0.0029539 -1.35567e-05)
(-0.00455914 0.00275961 -9.33535e-06)
(-0.00579903 0.00249154 -6.84859e-06)
(-0.00689704 0.00216298 -5.36909e-06)
(-0.00782643 0.0017818 -4.52888e-06)
(-0.00856502 0.00135591 -4.20361e-06)
(-0.00909435 0.00089348 -4.35211e-06)
(-0.00939996 0.000402975 -4.95314e-06)
(-0.00947081 -0.000106703 -5.9794e-06)
(-0.00929985 -0.000625433 -7.35773e-06)
(-0.00888515 -0.00114173 -9.02518e-06)
(-0.00823002 -0.00164262 -1.08044e-05)
(-0.00734385 -0.00211335 -1.24287e-05)
(-0.00624327 -0.00253746 -1.34766e-05)
(-0.00495393 -0.00289699 -1.32024e-05)
(-0.00351495 -0.00316693 -1.04375e-05)
(-0.00191812 -0.00324973 -4.64362e-06)
(-0.000535992 -0.00246474 1.72714e-05)
(-0.000513889 0.00335765 -4.37471e-05)
(-0.00185578 0.00445247 -2.59747e-05)
(-0.00342591 0.00438979 -1.95684e-05)
(-0.00486214 0.00409918 -1.47468e-05)
(-0.00618307 0.0036996 -1.16656e-05)
(-0.00735285 0.00321097 -9.57459e-06)
(-0.00834396 0.00264528 -8.1057e-06)
(-0.00913381 0.00201434 -7.14615e-06)
(-0.00970361 0.00133009 -6.67046e-06)
(-0.0100383 0.000604722 -6.67869e-06)
(-0.0101263 -0.000148834 -7.17339e-06)
(-0.00995904 -0.000916957 -8.03836e-06)
(-0.00953246 -0.00168321 -9.26772e-06)
(-0.00884795 -0.00242883 -1.06957e-05)
(-0.00791281 -0.00313213 -1.20438e-05)
(-0.00674201 -0.00376846 -1.28598e-05)
(-0.00536077 -0.00431034 -1.23254e-05)
(-0.00381037 -0.00471936 -9.14478e-06)
(-0.00208175 -0.00485003 -2.75775e-06)
(-0.000581842 -0.0036953 2.0809e-05)
(-0.000557226 0.0045517 -5.12259e-05)
(-0.00201356 0.00602282 -3.24032e-05)
(-0.00371747 0.0059341 -2.53822e-05)
(-0.00527373 0.00553878 -1.99292e-05)
(-0.00670384 0.0049973 -1.62914e-05)
(-0.00796988 0.00433712 -1.36763e-05)
(-0.00904361 0.00357491 -1.17047e-05)
(-0.00990224 0.00272664 -1.02699e-05)
(-0.0105269 0.00180795 -9.35795e-06)
(-0.0109021 0.000834426 -8.98602e-06)
(-0.0110153 -0.000177905 -9.17845e-06)
(-0.0108562 -0.00121194 -9.77418e-06)
(-0.0104176 -0.00224708 -1.08311e-05)
(-0.00969766 -0.00325917 -1.21861e-05)
(-0.00870001 -0.00421938 -1.35399e-05)
(-0.00743647 -0.00509391 -1.43877e-05)
(-0.00593074 -0.00584385 -1.3797e-05)
(-0.00422645 -0.0064142 -1.02697e-05)
(-0.00231371 -0.00660448 -3.15381e-06)
(-0.00064739 -0.00504648 2.30627e-05)
(-0.000614854 0.00586002 -6.01667e-05)
(-0.00222252 0.00774375 -3.98332e-05)
(-0.00410232 0.00762426 -3.20282e-05)
(-0.00581536 0.0071122 -2.57975e-05)
(-0.00738689 0.00641419 -2.15052e-05)
(-0.00877666 0.0055667 -1.83064e-05)
(-0.00995596 0.00459188 -1.58077e-05)
(-0.0109024 0.00351024 -1.39075e-05)
(-0.0115975 0.00234106 -1.26028e-05)
(-0.0120258 0.00110272 -1.193e-05)
(-0.0121742 -0.000186411 -1.19492e-05)
(-0.0120297 -0.00150719 -1.24116e-05)
(-0.0115811 -0.00283573 -1.34833e-05)
(-0.0108215 -0.00414327 -1.49925e-05)
(-0.00974876 -0.00539385 -1.6615e-05)
(-0.00836897 -0.00654342 -1.77715e-05)
(-0.00670213 -0.00753897 -1.73629e-05)
(-0.00479365 -0.00830408 -1.35872e-05)
(-0.00263221 -0.00857265 -5.60749e-06)
(-0.000738005 -0.00656707 2.44065e-05)
(-0.000688868 0.00731606 -7.1589e-05)
(-0.0024901 0.00965839 -4.9294e-05)
(-0.00459336 0.00950076 -4.04498e-05)
(-0.00650343 0.00885503 -3.31649e-05)
(-0.00825067 0.00798052 -2.79761e-05)
(-0.00979238 0.00692482 -2.39864e-05)
(-0.0111002 0.00571687 -2.07937e-05)
(-0.0121532 0.00438225 -1.8305e-05)
(-0.0129345 0.00294365 -1.65284e-05)
(-0.0134297 0.00142141 -1.55257e-05)
(-0.0136254 -0.000165153 -1.5476e-05)
(-0.0135057 -0.00179653 -1.58222e-05)
(-0.0130538 -0.00344767 -1.70736e-05)
(-0.0122559 -0.00508676 -1.89761e-05)
(-0.0111004 -0.00667134 -2.11853e-05)
(-0.00958374 -0.0081461 -2.30306e-05)
(-0.00771806 -0.00944053 -2.31798e-05)
(-0.00554831 -0.0104497 -1.93791e-05)
(-0.00306002 -0.0108261 -1.04564e-05)
(-0.000860722 -0.00831657 2.47397e-05)
(-0.000782293 0.00895944 -8.66167e-05)
(-0.00282667 0.0118173 -6.18719e-05)
(-0.00520809 0.0116098 -5.15995e-05)
(-0.00735958 0.0108066 -4.28009e-05)
(-0.00931862 0.0097284 -3.62861e-05)
(-0.0110405 0.00843716 -3.11224e-05)
(-0.0124986 0.00697042 -2.69145e-05)
(-0.0136757 0.00535957 -2.35831e-05)
(-0.0145584 0.00363043 -2.11358e-05)
(-0.0151347 0.00180399 -1.95854e-05)
(-0.0153922 -0.00010158 -1.88565e-05)
(-0.0153123 -0.002069 -1.97448e-05)
(-0.0148714 -0.00407539 -2.14613e-05)
(-0.0140452 -0.0060889 -2.40795e-05)
(-0.0128083 -0.00806257 -2.73275e-05)
(-0.0111409 -0.00992949 -3.04599e-05)
(-0.00903985 -0.0115978 -3.18318e-05)
(-0.00654417 -0.0129242 -2.85214e-05)
(-0.00363238 -0.0134556 -1.87325e-05)
(-0.0010269 -0.010373 2.33755e-05)
(-0.00089975 0.0108377 -0.000106794)
(-0.00324746 0.0142801 -7.90169e-05)
(-0.00597135 0.0140041 -6.66875e-05)
(-0.00841363 0.0130094 -5.56133e-05)
(-0.0106219 0.0116905 -4.70481e-05)
(-0.0125506 0.0101281 -4.00685e-05)
(-0.0141779 0.00837089 -3.43156e-05)
(-0.0154933 0.00645718 -2.9734e-05)
(-0.0164902 0.00441534 -2.63352e-05)
(-0.0171618 0.00226508 -2.40941e-05)
(-0.0174984 2.00545e-05 -2.278e-05)
(-0.0174795 -0.00230695 -2.41045e-05)
(-0.0170738 -0.00470189 -2.64381e-05)
(-0.0162431 -0.00713776 -3.01607e-05)
(-0.0149413 -0.00956756 -3.51047e-05)
(-0.0131225 -0.0119146 -4.0486e-05)
(-0.010756 -0.0140619 -4.42727e-05)
(-0.00786258 -0.0158153 -4.2572e-05)
(-0.00440568 -0.0165783 -3.23623e-05)
(-0.00125588 -0.0128431 1.87248e-05)
(-0.00104857 0.0130103 -0.000134475)
(-0.00377538 0.0171192 -0.000102881)
(-0.00691908 0.0167445 -8.74107e-05)
(-0.00970718 0.0155094 -7.27655e-05)
(-0.0122021 0.0138987 -6.09318e-05)
(-0.0143603 0.0120184 -5.10878e-05)
(-0.0161697 0.00993205 -4.29532e-05)
(-0.0176314 0.00768583 -3.65004e-05)
(-0.0187507 0.00530989 -3.17494e-05)
(-0.0195301 0.00282013 -2.87415e-05)
(-0.0199643 0.000221804 -2.76284e-05)
(-0.0200344 -0.00248343 -2.84832e-05)
(-0.0197023 -0.00529653 -3.14541e-05)
(-0.018911 -0.00820396 -3.67586e-05)
(-0.0175855 -0.0111676 -4.43464e-05)
(-0.0156398 -0.0141076 -5.34895e-05)
(-0.0129952 -0.0168813 -6.17907e-05)
(-0.00962908 -0.0192282 -6.40393e-05)
(-0.005474 -0.0203499 -5.46507e-05)
(-0.00158264 -0.0158811 7.60357e-06)
(-0.00124094 0.015555 -0.000173466)
(-0.00444602 0.020425 -0.000136831)
(-0.00810426 0.0199025 -0.000116236)
(-0.0112991 0.0183551 -9.5756e-05)
(-0.0141154 0.0163815 -7.85908e-05)
(-0.0165176 0.0141219 -6.41871e-05)
(-0.0185108 0.011659 -5.23792e-05)
(-0.0201158 0.00904821 -4.31279e-05)
(-0.0213562 0.00631993 -3.63797e-05)
(-0.0222501 0.00348288 -3.21105e-05)
(-0.0228021 0.000528878 -3.04132e-05)
(-0.022998 -0.00256084 -3.13098e-05)
(-0.0227944 -0.00581003 -3.52068e-05)
(-0.0221143 -0.0092318 -4.27011e-05)
(-0.0208453 -0.0128123 -5.42026e-05)
(-0.0188419 -0.0164845 -6.93977e-05)
(-0.0159464 -0.0200886 -8.57814e-05)
(-0.0120416 -0.0232867 -9.67471e-05)
(-0.00700142 -0.0249812 -9.11362e-05)
(-0.00207445 -0.0197249 -1.71083e-05)
(-0.00149831 0.0185793 -0.000230233)
(-0.00531664 0.0243135 -0.000186294)
(-0.00960654 0.0235627 -0.000156765)
(-0.013274 0.0215955 -0.000126399)
(-0.0164381 0.0191593 -0.000100384)
(-0.0190833 0.0164391 -7.87112e-05)
(-0.0212438 0.013542 -6.13112e-05)
(-0.0229709 0.0105331 -4.79928e-05)
(-0.0243163 0.00744069 -3.84369e-05)
(-0.0253214 0.00426147 -3.23642e-05)
(-0.0260083 0.00096679 -2.96699e-05)
(-0.0263735 -0.00249001 -3.04854e-05)
(-0.0263734 -0.00616894 -3.53454e-05)
(-0.0259133 -0.0101275 -4.54785e-05)
(-0.0248387 -0.0144008 -6.22637e-05)
(-0.0229235 -0.018965 -8.66015e-05)
(-0.0198873 -0.0236727 -0.000116782)
(-0.0154191 -0.0281241 -0.000145887)
(-0.00928987 -0.0307581 -0.000150518)
(-0.00287039 -0.0247687 -7.13836e-05)
(-0.00186071 0.0222454 -0.000316366)
(-0.0064828 0.0289406 -0.000260341)
(-0.0115476 0.0278259 -0.000214175)
(-0.0157547 0.0252758 -0.000166477)
(-0.019275 0.0222364 -0.000125579)
(-0.0221355 0.018948 -9.24139e-05)
(-0.0244173 0.0155473 -6.67533e-05)
(-0.0262174 0.0121075 -4.7848e-05)
(-0.0276281 0.00865016 -3.46797e-05)
(-0.0287242 0.00515393 -2.63774e-05)
(-0.0295538 0.001562 -2.22945e-05)
(-0.030134 -0.00220943 -2.24388e-05)
(-0.0304321 -0.00627006 -2.76967e-05)
(-0.0303461 -0.0107446 -4.00983e-05)
(-0.0296832 -0.0157529 -6.26822e-05)
(-0.0281238 -0.0213682 -9.92304e-05)
(-0.0252233 -0.0275224 -0.000151168)
(-0.020286 -0.0338523 -0.000216322)
(-0.0129235 -0.0380558 -0.000245367)
(-0.00427517 -0.0317184 -0.000190889)
(-0.00240969 0.0267227 -0.000451066)
(-0.00811706 0.0344745 -0.000372205)
(-0.0141197 0.0327951 -0.000294654)
(-0.0189224 0.0294237 -0.000216221)
(-0.0227696 0.0255864 -0.000150272)
(-0.0257731 0.0215904 -9.93778e-05)
(-0.0280847 0.0176055 -6.21891e-05)
(-0.0298682 0.0137067 -3.6374e-05)
(-0.0312699 0.00990025 -1.93086e-05)
(-0.0324096 0.00613897 -8.81347e-06)
(-0.0333717 0.00233158 -3.03139e-06)
(-0.0342056 -0.00165115 -1.20991e-06)
(-0.0349086 -0.00598121 -4.87188e-06)
(-0.0353961 -0.0108721 -1.67076e-05)
(-0.0354624 -0.0165743 -4.22435e-05)
(-0.0347063 -0.0233455 -9.08021e-05)
(-0.0325276 -0.031319 -0.000172261)
(-0.0275076 -0.0404421 -0.00030561)
(-0.0190776 -0.0472198 -0.00039191)
(-0.00699842 -0.0420155 -0.000452373)
(-0.00324825 0.0329196 -0.000700066)
(-0.0104315 0.0413643 -0.000556067)
(-0.0175832 0.0386569 -0.000408952)
(-0.0230295 0.0340497 -0.000271319)
(-0.027112 0.029137 -0.000162472)
(-0.0301168 0.0242547 -8.53435e-05)
(-0.0323005 0.0195971 -3.38081e-05)
(-0.0339215 0.0152226 -1.50079e-06)
(-0.0351941 0.0111066 1.81677e-05)
(-0.0362908 0.00716511 3.02637e-05)
(-0.0373414 0.00326744 3.79486e-05)
(-0.0384436 -0.000767204 4.41475e-05)
(-0.0396491 -0.00515716 4.68721e-05)
(-0.0409343 -0.0102351 4.35948e-05)
(-0.0421501 -0.0164187 2.63568e-05)
(-0.0428794 -0.0242717 -2.07585e-05)
(-0.0425103 -0.0342757 -0.00012673)
(-0.0383707 -0.0473864 -0.000369373)
(-0.0301761 -0.0581662 -0.000561665)
(-0.0128193 -0.0584075 -0.00101664)
(-0.00519532 0.0387252 -0.0010099)
(-0.0146431 0.0491503 -0.000814134)
(-0.0225716 0.0452508 -0.000541275)
(-0.0285137 0.0390471 -0.000305018)
(-0.0325631 0.0327312 -0.000127765)
(-0.0353052 0.0267465 -1.63813e-05)
(-0.0371025 0.021329 4.76032e-05)
(-0.038338 0.0164874 8.08018e-05)
(-0.0393 0.0121384 9.74404e-05)
(-0.0402144 0.0081474 0.000107004)
(-0.0412623 0.00434799 0.00011563)
(-0.0425799 0.000536516 0.000127208)
(-0.0443152 -0.00356309 0.000152743)
(-0.0465811 -0.00838958 0.000178377)
(-0.049396 -0.0144642 0.000207374)
(-0.0524452 -0.0228917 0.000216782)
(-0.0556276 -0.0344056 0.000163589)
(-0.0541756 -0.0533672 -0.000193469)
(-0.049825 -0.0704059 -0.000477055)
(-0.0243544 -0.0866737 -0.00201365)
(-0.00596187 0.0557031 -0.00193848)
(-0.0180244 0.0591387 -0.00118999)
(-0.0289184 0.0527581 -0.000676473)
(-0.0356113 0.043591 -0.000222949)
(-0.0393259 0.0355371 5.37742e-05)
(-0.0413463 0.0284429 0.000188087)
(-0.0422953 0.0223676 0.000243374)
(-0.0427599 0.0171901 0.00025632)
(-0.0430989 0.0127574 0.000253156)
(-0.0435668 0.00888434 0.000249531)
(-0.044359 0.00536037 0.000257596)
(-0.0456756 0.00192806 0.000287453)
(-0.0477911 -0.00173792 0.000347673)
(-0.0508994 -0.00608976 0.000444775)
(-0.0554623 -0.0117345 0.000619362)
(-0.0611642 -0.0204343 0.000870646)
(-0.0704467 -0.0331581 0.00115887)
(-0.0735265 -0.0587109 0.000858044)
(-0.0782439 -0.0863995 0.000663969)
(-0.0373331 -0.136154 -0.00305295)
(-0.0159593 0.0553708 -0.00298398)
(-0.0365863 0.0765075 -0.00237176)
(-0.0392463 0.0646464 -0.0010001)
(-0.0452394 0.0521194 -0.000187331)
(-0.0458381 0.0406819 0.000335143)
(-0.0453526 0.0310654 0.000551579)
(-0.0441443 0.0235306 0.000610257)
(-0.0428383 0.0176765 0.000587165)
(-0.0417541 0.0131094 0.000539272)
(-0.0411293 0.00946953 0.000497137)
(-0.0411705 0.0064953 0.000480025)
(-0.0420736 0.00396769 0.000503609)
(-0.044125 0.00179239 0.000598421)
(-0.0475351 -0.000347527 0.00081952)
(-0.0534225 -0.00199103 0.00127438)
(-0.0605223 -0.00794543 0.00198897)
(-0.0744162 -0.0128452 0.00329851)
(-0.0755394 -0.0483748 0.00377315)
(-0.0900796 -0.086775 0.00437732)
(-0.0213688 -0.207402 -0.0036023)
(-0.0642303 0.1234 -0.00557688)
(-0.0534599 0.0687023 -0.000852174)
(-0.0489417 0.0574547 0.000643294)
(-0.0359339 0.0428313 0.00187947)
(-0.0231683 0.0311345 0.00220592)
(-0.0122641 0.0231062 0.00203537)
(-0.00313203 0.0173867 0.00172734)
(0.00402975 0.0130994 0.00140775)
(0.00945295 0.00984792 0.00115286)
(0.0133993 0.0073677 0.000971969)
(0.0160875 0.00549161 0.000878878)
(0.0178298 0.00400779 0.000884027)
(0.0183493 0.00302468 0.00105465)
(0.0193415 0.00174886 0.00145193)
(0.0159273 0.000681084 0.00233235)
(0.0212632 -0.0052923 0.00382317)
(0.00715918 -0.0172101 0.00659647)
(0.0315185 -0.0614439 0.00838476)
(-0.0169838 -0.146344 0.00978046)
(0.0469792 -0.283497 -0.00813283)
(0.129866 0.139602 -0.00836827)
(0.161999 0.0800826 -0.00656575)
(0.239619 0.0540315 -0.00409901)
(0.285036 0.036996 -0.00144864)
(0.315501 0.0246147 0.000229378)
(0.337672 0.0162698 0.00101041)
(0.3539 0.0110113 0.0012837)
(0.365658 0.00771568 0.00127996)
(0.374258 0.005563 0.00115232)
(0.380733 0.00408693 0.000986964)
(0.385309 0.00308403 0.000884453)
(0.389348 0.00228018 0.000758135)
(0.390478 0.00168585 0.000924266)
(0.395346 0.00127645 0.000830164)