/*--------------------------------*- C++ -*----------------------------------*\
  =========                 |
  \\      /  F ield         | OpenFOAM: The Open Source CFD Toolbox
   \\    /   O peration     | Website:  https://openfoam.org
    \\  /    A nd           | Version:  10
     \\/     M anipulation  |
\*---------------------------------------------------------------------------*/
FoamFile
{
    format      ascii;
    class       volVectorField;
    location    "4.4";
    object      U;
}
// * * * * * * * * * * * * * * * * * * * * * * * * * * * * * * * * * * * * * //

dimensions      [0 1 -1 0 0 0 0];

internalField   nonuniform List<vector> 
400
(
(-9.97744e-05 9.53138e-05 0)
(-0.000810729 0.0003148 0)
(-0.00197436 0.000372462 0)
(-0.00307782 0.000374845 0)
(-0.00415676 0.000363038 0)
(-0.00517473 0.000345058 0)
(-0.0061086 0.000320299 0)
(-0.00693586 0.000286677 0)
(-0.00763018 0.000242057 0)
(-0.00816184 0.000184491 0)
(-0.00849842 0.000112515 0)
(-0.00860601 2.59779e-05 0)
(-0.00845115 -7.62161e-05 0)
(-0.00800497 -0.000191013 0)
(-0.00724844 -0.000313415 0)
(-0.00617683 -0.000435432 0)
(-0.00481272 -0.000543695 0)
(-0.00323858 -0.000612628 0)
(-0.00145114 -0.000574989 0)
(-0.000243508 -0.000259891 0)
(-0.000334652 0.000816416 0)
(-0.00175372 0.00169633 0)
(-0.00383397 0.0019091 0)
(-0.00580883 0.00189118 0)
(-0.00771473 0.00179926 0)
(-0.00948756 0.00166723 0)
(-0.0110827 0.00149706 0)
(-0.0124602 0.00128472 0)
(-0.0135776 0.00102554 0)
(-0.01439 0.000715386 0)
(-0.0148509 0.000351355 0)
(-0.0149156 -6.79426e-05 0)
(-0.0145409 -0.000536615 0)
(-0.0136898 -0.00104237 0)
(-0.0123429 -0.00156466 0)
(-0.0105017 -0.00207158 0)
(-0.00820977 -0.00251154 0)
(-0.00559035 -0.00278453 0)
(-0.00265457 -0.00264153 0)
(-0.000543538 -0.00142769 0)
(-0.000413981 0.00204766 0)
(-0.00208867 0.00381688 0)
(-0.00450132 0.00422141 0)
(-0.00678214 0.00415539 0)
(-0.0089758 0.00392783 0)
(-0.0110107 0.0036078 0)
(-0.0128374 0.00320287 0)
(-0.0144122 0.0027088 0)
(-0.0156891 0.00211956 0)
(-0.01662 0.00142967 0)
(-0.0171563 0.000635863 0)
(-0.0172452 -0.000261429 0)
(-0.0168347 -0.00125169 0)
(-0.0158823 -0.00231054 0)
(-0.0143598 -0.00339669 0)
(-0.0122603 -0.00444571 0)
(-0.00962393 -0.00535479 0)
(-0.00658634 -0.00592274 0)
(-0.00315533 -0.00565897 0)
(-0.000658456 -0.00325157 0)
(-0.000440133 0.0033006 0)
(-0.00223127 0.00599592 0)
(-0.00481072 0.00659265 0)
(-0.00724451 0.00647411 0)
(-0.00958855 0.00610977 0)
(-0.0117694 0.0056037 0)
(-0.0137382 0.00496821 0)
(-0.0154515 0.00419809 0)
(-0.0168631 0.00328487 0)
(-0.0179231 0.00222005 0)
(-0.0185781 0.000998035 0)
(-0.0187711 -0.000379541 0)
(-0.0184375 -0.00190378 0)
(-0.0175145 -0.0035423 0)
(-0.0159528 -0.00523652 0)
(-0.0137233 -0.00688983 0)
(-0.010849 -0.00834122 0)
(-0.00747253 -0.00927102 0)
(-0.0035969 -0.00891111 0)
(-0.000751819 -0.00520973 0)
(-0.000459462 0.00462978 0)
(-0.00235398 0.00831376 0)
(-0.00509082 0.00911433 0)
(-0.00767304 0.00894315 0)
(-0.0101684 0.00844097 0)
(-0.0125028 0.00774878 0)
(-0.01463 0.00688378 0)
(-0.0165088 0.00583926 0)
(-0.0180939 0.00460307 0)
(-0.0193343 0.00316149 0)
(-0.0201718 0.00150282 0)
(-0.0205404 -0.000377261 0)
(-0.0203588 -0.00247456 0)
(-0.0195379 -0.004754 0)
(-0.017994 -0.00714557 0)
(-0.0156565 -0.00952106 0)
(-0.0125107 -0.0116501 0)
(-0.00869948 -0.013061 0)
(-0.00422268 -0.0126437 0)
(-0.000889046 -0.0074746 0)
(-0.000483649 0.00603529 0)
(-0.00250315 0.0107807 0)
(-0.00543022 0.0118012 0)
(-0.00819305 0.0115797 0)
(-0.0108728 0.0109418 0)
(-0.0133957 0.0100684 0)
(-0.0157195 0.00898184 0)
(-0.0178071 0.00767346 0)
(-0.0196164 0.00612581 0)
(-0.021097 0.00431681 0)
(-0.0221866 0.00222319 0)
(-0.0228125 -0.000174431 0)
(-0.0228715 -0.00287853 0)
(-0.0222373 -0.00587199 0)
(-0.0207781 -0.00908076 0)
(-0.0183575 -0.0123479 0)
(-0.0148903 -0.0153613 0)
(-0.0104977 -0.0174504 0)
(-0.00517056 -0.017055 0)
(-0.0011093 -0.0101912 0)
(-0.000514731 0.00753443 0)
(-0.00268873 0.0134277 0)
(-0.00584804 0.0146868 0)
(-0.00882938 0.014417 0)
(-0.0117305 0.013646 0)
(-0.0144784 0.0125982 0)
(-0.017037 0.0113021 0)
(-0.0193768 0.00974707 0)
(-0.0214622 0.00790888 0)
(-0.0232479 0.00575379 0)
(-0.0246729 0.00324084 0)
(-0.0256505 0.000327422 0)
(-0.0260641 -0.0030132 0)
(-0.02575 -0.00679772 0)
(-0.0244997 -0.0109699 0)
(-0.0220789 -0.0153595 0)
(-0.0182791 -0.0195657 0)
(-0.0131429 -0.0226575 0)
(-0.00663413 -0.0224432 0)
(-0.00147688 -0.0136051 0)
(-0.000553065 0.00914965 0)
(-0.00291365 0.0162937 0)
(-0.00634955 0.0178112 0)
(-0.00958633 0.0174929 0)
(-0.0127425 0.0165894 0)
(-0.015747 0.0153739 0)
(-0.0185731 0.0138834 0)
(-0.0212024 0.0121057 0)
(-0.0236116 0.0100097 0)
(-0.0257667 0.00754727 0)
(-0.0276142 0.00465431 0)
(-0.0290672 0.00125501 0)
(-0.0299979 -0.00273022 0)
(-0.0301999 -0.00737042 0)
(-0.0293764 -0.0126674 0)
(-0.0271506 -0.018477 0)
(-0.0231102 -0.0243219 0)
(-0.0170943 -0.028945 0)
(-0.00899198 -0.0292348 0)
(-0.00213592 -0.0181335 0)
(-0.000599678 0.0109048 0)
(-0.00318222 0.0194199 0)
(-0.00694103 0.0212142 0)
(-0.0104676 0.0208413 0)
(-0.0139069 0.0198014 0)
(-0.0171911 0.0184236 0)
(-0.0203066 0.0167558 0)
(-0.0232515 0.014787 0)
(-0.0260215 0.0124802 0)
(-0.0286039 0.0097726 0)
(-0.0309656 0.00657215 0)
(-0.0330354 0.00275653 0)
(-0.0346906 -0.00182432 0)
(-0.0356958 -0.0073331 0)
(-0.0356609 -0.0138959 0)
(-0.0340233 -0.0214733 0)
(-0.0300598 -0.0295767 0)
(-0.0231757 -0.0365735 0)
(-0.0130654 -0.038045 0)
(-0.00343568 -0.0245548 0)
(-0.000657403 0.0128274 0)
(-0.00350369 0.022851 0)
(-0.00763534 0.0249346 0)
(-0.0114827 0.0244913 0)
(-0.0152252 0.0233031 0)
(-0.0187999 0.0217634 0)
(-0.0222111 0.0199356 0)
(-0.0254791 0.0178137 0)
(-0.0286271 0.0153589 0)
(-0.0316758 0.0124972 0)
(-0.0346313 0.00910895 0)
(-0.0374651 0.00501785 0)
(-0.0400905 -1.94683e-05 0)
(-0.0422875 -0.00629357 0)
(-0.043607 -0.0141659 0)
(-0.0432862 -0.0238402 0)
(-0.0401828 -0.0349884 0)
(-0.0329354 -0.0456452 0)
(-0.0207276 -0.0497131 0)
(-0.00625247 -0.0344773 0)
(-0.000732513 0.0149537 0)
(-0.00389642 0.0266394 0)
(-0.00845735 0.0290117 0)
(-0.0126522 0.0284657 0)
(-0.0167069 0.0271038 0)
(-0.0205666 0.0253934 0)
(-0.0242581 0.0234186 0)
(-0.0278296 0.0211843 0)
(-0.0313396 0.0186576 0)
(-0.0348557 0.0157626 0)
(-0.0384473 0.0123624 0)
(-0.0421673 0.00823299 0)
(-0.0460102 0.00303042 0)
(-0.0498771 -0.00372853 0)
(-0.0533784 -0.0126935 0)
(-0.055637 -0.0245613 0)
(-0.0550889 -0.0395118 0)
(-0.0492498 -0.0555678 0)
(-0.0360327 -0.0651088 0)
(-0.0127242 -0.0514759 0)
(-0.000838045 0.0173371 0)
(-0.00439495 0.0308508 0)
(-0.00945189 0.0334863 0)
(-0.0140145 0.032779 0)
(-0.0183759 0.0311972 0)
(-0.0224936 0.0292922 0)
(-0.0264224 0.0271732 0)
(-0.030242 0.0248625 0)
(-0.0340509 0.0223444 0)
(-0.0379738 0.0195591 0)
(-0.0421651 0.0163798 0)
(-0.0468053 0.0125718 0)
(-0.0520743 0.00772524 0)
(-0.0580963 0.00115765 0)
(-0.0648095 -0.00813463 0)
(-0.0716436 -0.0215731 0)
(-0.0768656 -0.0404955 0)
(-0.0765759 -0.0639502 0)
(-0.065466 -0.0849458 0)
(-0.026276 -0.0828 0)
(-0.0010012 0.0200597 0)
(-0.00506326 0.0355637 0)
(-0.0106959 0.0383815 0)
(-0.0156354 0.0374159 0)
(-0.0202774 0.0355479 0)
(-0.0245995 0.0334102 0)
(-0.0286902 0.0311349 0)
(-0.0326605 0.0287676 0)
(-0.0366453 0.0263237 0)
(-0.040823 0.0237836 0)
(-0.0454383 0.0210711 0)
(-0.0508318 0.0180053 0)
(-0.057464 0.0142027 0)
(-0.0659174 0.00890777 0)
(-0.0768956 0.000803258 0)
(-0.0909551 -0.0122382 0)
(-0.106697 -0.0334175 0)
(-0.117623 -0.0663249 0)
(-0.109769 -0.110638 0)
(-0.0431768 -0.141839 0)
(-0.00128235 0.02328 0)
(-0.00604247 0.0410227 0)
(-0.0123302 0.0439366 0)
(-0.0176101 0.0425874 0)
(-0.0224686 0.0402721 0)
(-0.0269152 0.0377611 0)
(-0.0310671 0.0352392 0)
(-0.0350547 0.0327819 0)
(-0.039036 0.0304383 0)
(-0.0432272 0.0282517 0)
(-0.0479456 0.0262612 0)
(-0.0536857 0.0244631 0)
(-0.0612389 0.022714 0)
(-0.0718226 0.0205226 0)
(-0.0872564 0.0167015 0)
(-0.109687 0.0082853 0)
(-0.137895 -0.012189 0)
(-0.158848 -0.0622874 0)
(-0.147166 -0.15336 0)
(-0.0454154 -0.239415 0)
(-0.00168409 0.0273345 0)
(-0.00723862 0.0464739 0)
(-0.0144106 0.0489475 0)
(-0.0201002 0.0468482 0)
(-0.0251831 0.0441566 0)
(-0.0296354 0.0414927 0)
(-0.0336661 0.0389366 0)
(-0.0374536 0.0365247 0)
(-0.0411578 0.0343351 0)
(-0.0449651 0.0324987 0)
(-0.049166 0.0312255 0)
(-0.0542835 0.0308098 0)
(-0.0612797 0.0316171 0)
(-0.071817 0.0338301 0)
(-0.088738 0.0368656 0)
(-0.115265 0.0358898 0)
(-0.149758 0.0150472 0)
(-0.168312 -0.0648193 0)
(-0.148602 -0.220161 0)
(-0.0331668 -0.351272 0)
(-0.00366488 0.0311121 0)
(-0.011271 0.0556765 0)
(-0.0180064 0.0578794 0)
(-0.0233403 0.0553147 0)
(-0.0279526 0.0514496 0)
(-0.0321642 0.0476365 0)
(-0.0360249 0.044139 0)
(-0.039593 0.0410643 0)
(-0.0429212 0.038517 0)
(-0.0460922 0.0366723 0)
(-0.0492577 0.0358902 0)
(-0.0527294 0.0368113 0)
(-0.0572321 0.0405302 0)
(-0.0639384 0.048009 0)
(-0.0752794 0.0592213 0)
(-0.0929543 0.0644432 0)
(-0.118579 0.0406701 0)
(-0.125489 -0.0699617 0)
(-0.115929 -0.27943 0)
(-0.0243827 -0.443779 0)
(-0.00136396 0.0451948 0)
(-0.00932043 0.0584184 0)
(-0.0210679 0.0579997 0)
(-0.0270302 0.0533585 0)
(-0.0326396 0.0498645 0)
(-0.0366611 0.0468701 0)
(-0.0397954 0.044194 0)
(-0.0422683 0.0417228 0)
(-0.0441884 0.0395661 0)
(-0.0455447 0.0378979 0)
(-0.0462438 0.0372365 0)
(-0.0460597 0.0382893 0)
(-0.045037 0.0427483 0)
(-0.0424298 0.0513621 0)
(-0.0404 0.0654158 0)
(-0.0353729 0.0715677 0)
(-0.0433492 0.0476499 0)
(-0.0384856 -0.0712467 0)
(-0.0588745 -0.306505 0)
(-0.00139391 -0.506897 0)
(-0.0117438 0.034877 0)
(-0.0252094 0.0810366 0)
(-0.0259088 0.0786971 0)
(-0.0333318 0.0732636 0)
(-0.0365448 0.065912 0)
(-0.0382008 0.0592875 0)
(-0.0382977 0.0535302 0)
(-0.0373214 0.0485884 0)
(-0.035509 0.0444135 0)
(-0.0328019 0.0409502 0)
(-0.0293662 0.038487 0)
(-0.024315 0.0374841 0)
(-0.0181718 0.0397027 0)
(-0.00679016 0.0452945 0)
(0.00566738 0.0579128 0)
(0.0327016 0.0647958 0)
(0.0448672 0.0505697 0)
(0.0821758 -0.0487317 0)
(0.0344394 -0.291966 0)
(0.0518427 -0.511102 0)
(-0.0760274 0.0983809 0)
(-0.0614076 0.0614905 0)
(-0.0630296 0.0607257 0)
(-0.042503 0.0540045 0)
(-0.0256263 0.0470434 0)
(-0.00667028 0.0416908 0)
(0.011099 0.0376627 0)
(0.0283306 0.0340651 0)
(0.0439973 0.0312265 0)
(0.0595476 0.0283111 0)
(0.0730214 0.0263759 0)
(0.0883756 0.0243905 0)
(0.0994321 0.0241152 0)
(0.12175 0.0247588 0)
(0.13034 0.0246179 0)
(0.177568 0.0224645 0)
(0.180823 -0.00834093 0)
(0.237152 -0.0735441 0)
(0.170864 -0.264193 0)
(0.128461 -0.445601 0)
(0.120195 0.140224 0)
(0.15307 0.0862036 0)
(0.231508 0.0639374 0)
(0.286751 0.0487683 0)
(0.329227 0.0382506 0)
(0.367608 0.0305765 0)
(0.397433 0.025176 0)
(0.428695 0.0213636 0)
(0.449141 0.0181602 0)
(0.477668 0.0161639 0)
(0.489568 0.0139858 0)
(0.519431 0.0127606 0)
(0.522029 0.0115587 0)
(0.556889 0.0105416 0)
(0.54935 0.0100084 0)
(0.587911 0.00633082 0)
(0.561615 -0.00287186 0)
(0.574368 -0.0266178 0)
(0.441272 -0.0802133 0)
(0.277842 -0.158877 0)
)
;

boundaryField
{
    movingWall
    {
        type            fixedValue;
        value           uniform (1 0 0);
    }
    fixedWalls
    {
        type            noSlip;
    }
    frontAndBack
    {
        type            empty;
    }
}


// ************************************************************************* //
