/*--------------------------------*- C++ -*----------------------------------*\
  =========                 |
  \\      /  F ield         | OpenFOAM: The Open Source CFD Toolbox
   \\    /   O peration     | Website:  https://openfoam.org
    \\  /    A nd           | Version:  10
     \\/     M anipulation  |
\*---------------------------------------------------------------------------*/
FoamFile
{
    format      ascii;
    class       volVectorField;
    location    "9.6";
    object      U;
}
// * * * * * * * * * * * * * * * * * * * * * * * * * * * * * * * * * * * * * //

dimensions      [0 1 -1 0 0 0 0];

internalField   nonuniform List<vector> 
475
(
(0.974596 0.0160583 0)
(0.97548 0.0065022 0)
(0.950577 0.03143 0)
(0.953888 0.00142787 0)
(0.920128 0.0303353 0)
(0.998536 0.00870971 0)
(1.014 0.0148303 0)
(1.02546 0.0153023 0)
(1.04366 0.00877319 0)
(1.05587 0.00245469 0)
(0.999887 0.000282462 0)
(1.00969 -0.00295405 0)
(1.02437 -0.00456415 0)
(1.0411 -0.00927947 0)
(1.0567 -0.0140965 0)
(0.999822 -0.0100377 0)
(1.01027 -0.0194634 0)
(1.02275 -0.0220067 0)
(1.0355 -0.0229739 0)
(1.0447 -0.0254817 0)
(0.980726 -0.00968895 0)
(0.969178 -0.0190646 0)
(0.953695 -0.0218735 0)
(0.933485 -0.0222233 0)
(0.907799 -0.0229225 0)
(0.924228 -0.0155832 0)
(0.931535 -0.0353413 0)
(0.936799 -0.0484624 0)
(0.94314 -0.0580095 0)
(0.951844 -0.0670283 0)
(0.963775 -0.0764076 0)
(0.978825 -0.0882021 0)
(0.996173 -0.101825 0)
(1.01472 -0.118748 0)
(1.03328 -0.137409 0)
(1.05052 -0.158045 0)
(1.06504 -0.178265 0)
(1.07534 -0.197279 0)
(1.08038 -0.212708 0)
(1.07932 -0.223403 0)
(1.07167 -0.228045 0)
(1.05726 -0.226528 0)
(1.03617 -0.220265 0)
(1.00946 -0.210293 0)
(0.979976 -0.196734 0)
(0.950473 -0.179615 0)
(0.922338 -0.159381 0)
(0.895006 -0.136762 0)
(0.870225 -0.112374 0)
(0.845984 -0.0878068 0)
(0.827449 -0.0634436 0)
(0.810455 -0.0406533 0)
(0.802967 -0.0180958 0)
(0.794732 0.0027227 0)
(0.796487 0.0229762 0)
(0.795013 0.0405202 0)
(0.803133 0.0572166 0)
(0.805508 0.0703857 0)
(0.815455 0.080901 0)
(0.818415 0.0882116 0)
(0.827442 0.0909279 0)
(0.828283 0.0915268 0)
(0.835174 0.0877631 0)
(0.831638 0.0819135 0)
(0.836393 0.074273 0)
(0.828268 0.0640036 0)
(0.831093 0.0563053 0)
(0.819559 0.0464406 0)
(0.820877 0.0410357 0)
(0.807606 0.0343024 0)
(1.0684 -0.00813775 0)
(1.07819 -0.0202264 0)
(1.08243 -0.0321813 0)
(1.08463 -0.0428661 0)
(1.08428 -0.0540972 0)
(1.08522 -0.0656299 0)
(1.08457 -0.0795644 0)
(1.08475 -0.0949552 0)
(1.08238 -0.113424 0)
(1.07919 -0.132747 0)
(1.07218 -0.153629 0)
(1.06218 -0.172878 0)
(1.04719 -0.189974 0)
(1.02731 -0.201089 0)
(1.00162 -0.205546 0)
(0.970069 -0.201857 0)
(0.932268 -0.194189 0)
(0.888017 -0.184805 0)
(0.839039 -0.172869 0)
(0.789281 -0.156449 0)
(0.741774 -0.137242 0)
(0.696734 -0.116757 0)
(0.656179 -0.096869 0)
(0.620088 -0.0781804 0)
(0.587827 -0.0606852 0)
(0.561709 -0.0437475 0)
(0.541464 -0.027582 0)
(0.532221 -0.0114386 0)
(0.526022 0.00346602 0)
(0.530212 0.0191131 0)
(0.534387 0.0331405 0)
(0.549219 0.0474426 0)
(0.560015 0.0583056 0)
(0.57952 0.0685578 0)
(0.593585 0.0746682 0)
(0.612972 0.0788297 0)
(0.626921 0.0798086 0)
(0.643107 0.0776601 0)
(0.65363 0.0737643 0)
(0.665824 0.0676793 0)
(0.671552 0.0603025 0)
(0.679455 0.0538645 0)
(0.680642 0.046008 0)
(0.684104 0.0420642 0)
(0.682882 0.0373678 0)
(1.06837 -0.0220786 0)
(1.07723 -0.0321752 0)
(1.0806 -0.0434073 0)
(1.08217 -0.0539818 0)
(1.07877 -0.0644988 0)
(1.07556 -0.0749389 0)
(1.06744 -0.0868477 0)
(1.05998 -0.0996478 0)
(1.04675 -0.114631 0)
(1.03324 -0.130299 0)
(1.01316 -0.147181 0)
(0.990964 -0.162576 0)
(0.962877 -0.174876 0)
(0.930092 -0.18047 0)
(0.890606 -0.174579 0)
(0.842399 -0.158927 0)
(0.783499 -0.143475 0)
(0.716203 -0.134303 0)
(0.647681 -0.127106 0)
(0.58039 -0.115383 0)
(0.511779 -0.0965394 0)
(0.447076 -0.0736544 0)
(0.390474 -0.0512635 0)
(0.343893 -0.0335758 0)
(0.306611 -0.0213772 0)
(0.278725 -0.0129525 0)
(0.259793 -0.00668512 0)
(0.250509 -0.000288242 0)
(0.247516 0.00732409 0)
(0.252384 0.0164949 0)
(0.260051 0.0253913 0)
(0.275457 0.0347756 0)
(0.290678 0.0427599 0)
(0.313062 0.0506432 0)
(0.332885 0.0555709 0)
(0.357365 0.0600436 0)
(0.379401 0.0603695 0)
(0.40114 0.0605913 0)
(0.423091 0.0574477 0)
(0.439869 0.0544363 0)
(0.459637 0.0496959 0)
(0.470636 0.0454948 0)
(0.48779 0.0406598 0)
(0.492981 0.038379 0)
(0.510951 0.0343954 0)
(1.05046 -0.0297987 0)
(1.05193 -0.0357052 0)
(1.04876 -0.0419858 0)
(1.04172 -0.0484935 0)
(1.02899 -0.0546858 0)
(1.01351 -0.0613456 0)
(0.991017 -0.06852 0)
(0.966787 -0.0767927 0)
(0.932891 -0.0863353 0)
(0.897518 -0.0966798 0)
(0.849695 -0.108173 0)
(0.800185 -0.118265 0)
(0.738772 -0.126966 0)
(0.672228 -0.128837 0)
(0.6062 -0.116328 0)
(0.528711 -0.0947809 0)
(0.430647 -0.0693329 0)
(0.312334 -0.0427759 0)
(0.204847 -0.015211 0)
(0.126505 0.00035626 0)
(0.0747309 0.00136288 0)
(0.0461721 -0.00146549 0)
(0.03073 -0.00206298 0)
(0.0220775 -0.00196653 0)
(0.0173346 -0.00205592 0)
(0.0150198 -0.00216339 0)
(0.0143698 -0.0018847 0)
(0.0157731 -0.000546987 0)
(0.019537 0.00193149 0)
(0.0268705 0.00579435 0)
(0.0372587 0.0103861 0)
(0.0521811 0.0157884 0)
(0.0694945 0.0207738 0)
(0.0914715 0.025697 0)
(0.114277 0.0293245 0)
(0.140849 0.0321621 0)
(0.167046 0.0332774 0)
(0.194157 0.0340304 0)
(0.22156 0.0326175 0)
(0.244726 0.0314227 0)
(0.272018 0.0281879 0)
(0.288488 0.0260229 0)
(0.315512 0.0227647 0)
(0.324254 0.0210357 0)
(0.353947 0.0183374 0)
(0.880381 -0.0240619 0)
(0.849232 -0.0261329 0)
(0.816247 -0.0278945 0)
(0.778258 -0.0303097 0)
(0.737042 -0.0319582 0)
(0.690257 -0.0347178 0)
(0.639159 -0.0368317 0)
(0.582826 -0.0407533 0)
(0.519453 -0.0441115 0)
(0.451492 -0.049177 0)
(0.371032 -0.0540079 0)
(0.289474 -0.0574323 0)
(0.188211 -0.0652046 0)
(0.0865331 -0.0419576 0)
(0.0145774 0.00399917 0)
(-0.0271781 0.0403676 0)
(-0.0390212 0.0633487 0)
(-0.0320716 0.0619573 0)
(-0.0170049 0.0390241 0)
(-0.00594552 0.00687421 0)
(-0.00823261 -0.0161207 0)
(-0.0210192 -0.023371 0)
(-0.0350297 -0.0209984 0)
(-0.0463157 -0.0157966 0)
(-0.0548271 -0.0113634 0)
(-0.0613674 -0.00832343 0)
(-0.066544 -0.00644915 0)
(-0.0703527 -0.00498762 0)
(-0.0723808 -0.00357358 0)
(-0.0719707 -0.00190412 0)
(-0.0687532 -0.000184234 0)
(-0.0620937 0.00169807 0)
(-0.0522097 0.0033915 0)
(-0.0387742 0.00507319 0)
(-0.0228703 0.00633683 0)
(-0.00430715 0.0072753 0)
(0.015455 0.00778136 0)
(0.0360241 0.00785274 0)
(0.0562643 0.00743622 0)
(0.0753948 0.00672504 0)
(0.0939557 0.00582485 0)
(0.109049 0.00502706 0)
(0.125551 0.0040717 0)
(0.134611 0.00378039 0)
(0.153708 0.00330821 0)
(0.00214644 -0.0225217 0)
(0.00130593 -0.0219322 0)
(-0.00676339 -0.0155358 0)
(-0.0209581 -0.00291067 0)
(-0.0472283 0.0106504 0)
(-0.083102 0.0195592 0)
(-0.123126 0.0236737 0)
(-0.163632 0.0247285 0)
(-0.201139 0.023516 0)
(-0.232443 0.0205311 0)
(-0.25465 0.0161744 0)
(-0.26606 0.0108906 0)
(-0.266355 0.00474661 0)
(-0.25547 -0.00180319 0)
(-0.233738 -0.00805995 0)
(-0.202245 -0.0134819 0)
(-0.16261 -0.0177127 0)
(-0.117145 -0.020348 0)
(-0.0681971 -0.0216462 0)
(-0.0173974 -0.0216652 0)
(0.0331849 -0.0208841 0)
(0.0817165 -0.0192201 0)
(0.126297 -0.0166649 0)
(0.165482 -0.0134181 0)
(0.197842 -0.00978049 0)
(0.222795 -0.00592864 0)
(0.239837 -0.00194948 0)
(0.248572 0.00172307 0)
(0.249598 0.00525335 0)
(0.243415 0.00854972 0)
(0.230923 0.0106687 0)
(0.213768 0.0110911 0)
(0.193759 0.0102999 0)
(0.17293 0.00907225 0)
(0.152597 0.00769765 0)
(0.134028 0.00612449 0)
(0.117558 0.00433716 0)
(0.103919 0.00263339 0)
(0.0929032 0.00122904 0)
(0.085105 0.00010708 0)
(0.0799925 -0.000646124 0)
(0.077665 -0.00136935 0)
(0.0773544 -0.00165678 0)
(0.0778674 -0.00188558 0)
(0.0811942 -0.00160439 0)
(-0.000373043 0.0201946 0)
(-0.0160169 0.0329309 0)
(-0.0546836 0.0398699 0)
(-0.0879665 0.0469341 0)
(-0.119843 0.0539597 0)
(-0.145896 0.0570035 0)
(-0.166666 0.0560917 0)
(-0.181708 0.0513283 0)
(-0.190495 0.0430105 0)
(-0.191871 0.0315572 0)
(-0.18437 0.0172244 0)
(-0.167966 0.00124819 0)
(-0.142339 -0.0154528 0)
(-0.108088 -0.0322007 0)
(-0.0652228 -0.0477697 0)
(-0.0154118 -0.0609672 0)
(0.0405433 -0.0709377 0)
(0.100298 -0.0774066 0)
(0.161267 -0.0804579 0)
(0.222103 -0.0804221 0)
(0.280663 -0.0777694 0)
(0.336268 -0.0726736 0)
(0.387117 -0.0651867 0)
(0.432552 -0.0558683 0)
(0.471041 -0.0450271 0)
(0.502316 -0.0335153 0)
(0.526163 -0.0217133 0)
(0.542258 -0.00986974 0)
(0.550727 0.00119878 0)
(0.552419 0.0115054 0)
(0.546849 0.0206829 0)
(0.535167 0.0277683 0)
(0.51765 0.0321639 0)
(0.496274 0.0335445 0)
(0.471937 0.0325531 0)
(0.446656 0.0297075 0)
(0.421487 0.026191 0)
(0.398548 0.0218214 0)
(0.377492 0.0173105 0)
(0.360254 0.0123926 0)
(0.345666 0.00768422 0)
(0.335945 0.00365444 0)
(0.328443 0.000827802 0)
(0.324535 -0.00145163 0)
(0.322084 -0.00276644 0)
(-0.0346143 -0.0116958 0)
(-0.0677687 0.0273664 0)
(-0.0783256 0.0453044 0)
(-0.0824685 0.0552107 0)
(-0.0785955 0.0598653 0)
(-0.068142 0.0592363 0)
(-0.0526464 0.0545782 0)
(-0.0321622 0.0456622 0)
(-0.00729218 0.0322369 0)
(0.0220521 0.0147649 0)
(0.0572852 -0.00615688 0)
(0.0984205 -0.0295795 0)
(0.145546 -0.0544054 0)
(0.197005 -0.0783991 0)
(0.252151 -0.100158 0)
(0.30976 -0.11829 0)
(0.367881 -0.131248 0)
(0.425648 -0.139367 0)
(0.481362 -0.142489 0)
(0.534453 -0.141214 0)
(0.583513 -0.135735 0)
(0.628828 -0.126351 0)
(0.668741 -0.113302 0)
(0.703672 -0.0976015 0)
(0.732194 -0.0798541 0)
(0.755089 -0.0610157 0)
(0.771625 -0.041873 0)
(0.782953 -0.022887 0)
(0.788223 -0.00477103 0)
(0.788946 0.0117233 0)
(0.783705 0.02663 0)
(0.774197 0.0389141 0)
(0.759105 0.0480297 0)
(0.741753 0.0535675 0)
(0.72043 0.0560095 0)
(0.699357 0.0554314 0)
(0.675004 0.0516706 0)
(0.653838 0.0461333 0)
(0.630455 0.0393393 0)
(0.612873 0.0314648 0)
(0.593124 0.0236638 0)
(0.580531 0.0150921 0)
(0.564671 0.00915895 0)
(0.558276 0.00473299 0)
(0.544319 0.000622172 0)
(-0.0299606 0.141626 0)
(-0.0267105 0.09008 0)
(-0.0168999 0.0711022 0)
(0.0080405 0.0585319 0)
(0.0407172 0.0483677 0)
(0.0809307 0.0387285 0)
(0.126316 0.02689 0)
(0.175341 0.0120759 0)
(0.227436 -0.00672055 0)
(0.282 -0.0298165 0)
(0.339334 -0.0561562 0)
(0.398144 -0.0837032 0)
(0.457508 -0.111167 0)
(0.516732 -0.137069 0)
(0.574321 -0.159477 0)
(0.629331 -0.176907 0)
(0.680268 -0.188407 0)
(0.726738 -0.194003 0)
(0.767864 -0.19413 0)
(0.804391 -0.189252 0)
(0.835678 -0.179344 0)
(0.863252 -0.164675 0)
(0.885435 -0.145818 0)
(0.904188 -0.12422 0)
(0.917573 -0.100659 0)
(0.928396 -0.0763991 0)
(0.934353 -0.0520562 0)
(0.938955 -0.0281406 0)
(0.93888 -0.00547923 0)
(0.938164 0.0158214 0)
(0.932154 0.0342218 0)
(0.925866 0.0500191 0)
(0.913533 0.0621955 0)
(0.902221 0.0708166 0)
(0.885051 0.0756657 0)
(0.870698 0.0764169 0)
(0.850359 0.0744067 0)
(0.835075 0.0682568 0)
(0.813559 0.0609784 0)
(0.80037 0.0514445 0)
(0.778999 0.0414127 0)
(0.769623 0.0327253 0)
(0.748152 0.0232319 0)
(0.743573 0.0180448 0)
(0.721811 0.0118199 0)
(0.0808799 0.00507528 0)
(0.120031 -0.00369559 0)
(0.202672 -0.00715511 0)
(0.267446 -0.0137037 0)
(0.327606 -0.0223921 0)
(0.387674 -0.033037 0)
(0.448218 -0.0461755 0)
(0.508025 -0.0616172 0)
(0.568466 -0.0805248 0)
(0.627736 -0.102098 0)
(0.68616 -0.12629 0)
(0.742039 -0.151092 0)
(0.794157 -0.17508 0)
(0.841282 -0.196514 0)
(0.882198 -0.213623 0)
(0.916229 -0.22512 0)
(0.942648 -0.230265 0)
(0.961681 -0.229534 0)
(0.973831 -0.224033 0)
(0.980975 -0.21427 0)
(0.983766 -0.200005 0)
(0.984395 -0.181195 0)
(0.981412 -0.158544 0)
(0.977955 -0.133224 0)
(0.971388 -0.106698 0)
(0.966986 -0.0800683 0)
(0.960075 -0.0541961 0)
(0.957535 -0.0287145 0)
(0.951964 -0.00487623 0)
(0.951199 0.0179008 0)
(0.945684 0.0375555 0)
(0.945064 0.0551444 0)
(0.938685 0.0689959 0)
(0.936706 0.0792982 0)
(0.927859 0.0861108 0)
(0.924055 0.088053 0)
(0.911902 0.0875467 0)
(0.906849 0.0825117 0)
(0.89141 0.0755458 0)
(0.886727 0.0667031 0)
(0.868701 0.0556284 0)
(0.865156 0.046746 0)
(0.845298 0.0363952 0)
(0.843215 0.0306044 0)
(0.821416 0.0237555 0)
)
;

boundaryField
{
    inlet
    {
        type            fixedValue;
        value           uniform (1 0 0);
    }
    outlet
    {
        type            zeroGradient;
    }
    upperWall
    {
        type            noSlip;
    }
    lowerWall
    {
        type            noSlip;
    }
    frontAndBack
    {
        type            empty;
    }
}


// ************************************************************************* //
