/*--------------------------------*- C++ -*----------------------------------*\
  =========                 |
  \\      /  F ield         | OpenFOAM: The Open Source CFD Toolbox
   \\    /   O peration     | Website:  https://openfoam.org
    \\  /    A nd           | Version:  10
     \\/     M anipulation  |
\*---------------------------------------------------------------------------*/
FoamFile
{
    format      ascii;
    class       volScalarField;
    location    "6.9";
    object      p;
}
// * * * * * * * * * * * * * * * * * * * * * * * * * * * * * * * * * * * * * //

dimensions      [0 2 -2 0 0 0 0];

internalField   nonuniform List<scalar> 
400
(
3.97706e-07
-2.00706e-05
3.07603e-05
0.000128325
0.000279382
0.00048591
0.000750674
0.00107684
0.00146688
0.00192161
0.00243896
0.00301231
0.0036287
0.00426708
0.00489665
0.00547768
0.0059639
0.00630964
0.00650582
0.00647561
2.32486e-05
1.93593e-06
5.79156e-05
0.000156191
0.000305032
0.000507209
0.000765988
0.00108487
0.00146665
0.00191258
0.00242124
0.00298681
0.00359672
0.00423207
0.00486232
0.00544756
0.00593989
0.00629193
0.00649708
0.00645903
-3.46377e-05
-6.34382e-05
-9.27232e-06
8.51295e-05
0.000228841
0.000424917
0.000677219
0.000990168
0.00136784
0.00181309
0.00232638
0.00290407
0.00353703
0.00420617
0.00488021
0.00551514
0.00605482
0.00644029
0.00666304
0.0065988
-0.000153735
-0.000187865
-0.000136946
-4.85135e-05
8.7418e-05
0.000274364
0.000517102
0.000821434
0.00119337
0.0016384
0.00216019
0.00275868
0.00342749
0.00415173
0.00489926
0.00562031
0.00624492
0.00669154
0.00694804
0.00684482
-0.000340389
-0.000379307
-0.000333497
-0.000253518
-0.000128441
4.5837e-05
0.000275232
0.00056729
0.000930535
0.00137398
0.00190598
0.0025319
0.00325043
0.00405287
0.00490722
0.00575766
0.00651541
0.00706274
0.00737643
0.00720444
-0.000593568
-0.000637573
-0.000598826
-0.000530216
-0.000419971
-0.000263404
-5.34112e-05
0.00021945
0.000566565
0.00100118
0.00153774
0.00218988
0.00296653
0.00386201
0.00485745
0.00589164
0.00685127
0.00756171
0.00797228
0.00767365
-0.000910407
-0.00096032
-0.000930771
-0.000877077
-0.000786806
-0.000654913
-0.000473331
-0.000230919
8.65213e-05
0.000496707
0.00102101
0.00168367
0.00250757
0.00350437
0.00466681
0.00594569
0.00720425
0.00818347
0.00876606
0.00824105
-0.00128727
-0.00134421
-0.00132616
-0.00129144
-0.0012273
-0.00112884
-0.000987681
-0.000791723
-0.00052476
-0.000165313
0.000314589
0.000950479
0.00178366
0.00285402
0.00418008
0.00575478
0.00744001
0.00887906
0.00976772
0.00889868
-0.00171951
-0.00178473
-0.0017803
-0.00176867
-0.00173727
-0.0016821
-0.00159561
-0.00146632
-0.00127798
-0.00100765
-0.000623431
-8.14058e-05
0.000677778
0.00172442
0.00312726
0.00496785
0.00718503
0.00941973
0.0108384
0.0096613
-0.00220142
-0.00227608
-0.00228661
-0.0023014
-0.00230873
-0.00230659
-0.0022898
-0.00224966
-0.00217328
-0.00204164
-0.00182646
-0.00148521
-0.000954589
-0.000145665
0.00106145
0.00279198
0.00537928
0.00883148
0.0111821
0.0104341
-0.00272652
-0.00281157
-0.00283665
-0.00287909
-0.00292892
-0.00298739
-0.00305356
-0.00312427
-0.00319431
-0.00325562
-0.00329623
-0.00329896
-0.00324036
-0.00309942
-0.00286069
-0.00232614
-0.000527168
0.00397209
0.00820119
0.0103088
-0.00328872
-0.0033843
-0.00341996
-0.00348745
-0.0035792
-0.00370101
-0.00385783
-0.00405466
-0.0042987
-0.00460132
-0.00498259
-0.00548089
-0.00617861
-0.00727886
-0.00917523
-0.011894
-0.013226
-0.00879958
-0.00181053
0.0052914
-0.00388476
-0.00399062
-0.00402902
-0.00411386
-0.00423979
-0.00441909
-0.00466405
-0.00498924
-0.00541767
-0.00598741
-0.00676579
-0.00788019
-0.00958394
-0.0123824
-0.017367
-0.0247282
-0.0313758
-0.0280286
-0.0185836
-0.00604335
-0.00451089
-0.00461783
-0.00463698
-0.00472118
-0.00486734
-0.0050921
-0.00541165
-0.00584986
-0.00644389
-0.00725611
-0.00839807
-0.0100759
-0.012722
-0.0170411
-0.0245938
-0.0353222
-0.0463786
-0.0449799
-0.035536
-0.0197514
-0.00519784
-0.00531586
-0.00529769
-0.00536599
-0.00550141
-0.00573446
-0.00608812
-0.00659256
-0.00729265
-0.00826127
-0.00962993
-0.0116151
-0.014758
-0.0197144
-0.0281266
-0.0392325
-0.0514841
-0.050292
-0.0424831
-0.0259422
-0.00602647
-0.00594996
-0.00581475
-0.00578245
-0.00588366
-0.00612608
-0.00651696
-0.00707399
-0.00783593
-0.00886898
-0.0103027
-0.0122946
-0.0153984
-0.0200886
-0.0276514
-0.0368295
-0.0457587
-0.044482
-0.0389549
-0.0198668
-0.00651493
-0.00694273
-0.00664905
-0.00665833
-0.00665139
-0.00678009
-0.00705966
-0.00752297
-0.00820882
-0.0091645
-0.0105061
-0.0123186
-0.0150762
-0.018915
-0.0247532
-0.0310011
-0.0367866
-0.0340624
-0.0276477
-0.000480592
-0.00989326
-0.00737694
-0.00674602
-0.00616779
-0.00610169
-0.00629234
-0.00668196
-0.00723501
-0.00797178
-0.00890573
-0.0101637
-0.011794
-0.0141389
-0.0171688
-0.0214308
-0.0251543
-0.0278682
-0.0223561
-0.00994725
0.0341211
-0.00659205
-0.00959354
-0.00853346
-0.00855636
-0.00811252
-0.00788878
-0.00784861
-0.00802617
-0.00846673
-0.00915283
-0.0101946
-0.0116047
-0.0137806
-0.0164968
-0.0206658
-0.0236468
-0.024803
-0.0114537
0.0157355
0.0933058
-0.0317951
-0.00676209
-0.00525761
-0.00452131
-0.00433356
-0.00456796
-0.00510369
-0.00574605
-0.00660045
-0.00756246
-0.00890383
-0.0104912
-0.0126764
-0.0149294
-0.0170816
-0.0155375
-0.00689315
0.026525
0.0948849
0.227231
)
;

boundaryField
{
    movingWall
    {
        type            zeroGradient;
    }
    fixedWalls
    {
        type            zeroGradient;
    }
    frontAndBack
    {
        type            empty;
    }
}


// ************************************************************************* //
