/*--------------------------------*- C++ -*----------------------------------*\
  =========                 |
  \\      /  F ield         | OpenFOAM: The Open Source CFD Toolbox
   \\    /   O peration     | Website:  https://openfoam.org
    \\  /    A nd           | Version:  10
     \\/     M anipulation  |
\*---------------------------------------------------------------------------*/
FoamFile
{
    format      ascii;
    class       surfaceScalarField;
    location    "6.9";
    object      phi;
}
// * * * * * * * * * * * * * * * * * * * * * * * * * * * * * * * * * * * * * //

dimensions      [0 3 -1 0 0 0 0];

internalField   nonuniform List<scalar> 
760
(
-1.04452e-05
1.04444e-05
-3.40238e-05
2.35786e-05
-6.22146e-05
2.81909e-05
-9.15073e-05
2.92927e-05
-0.000120751
2.92433e-05
-0.000149519
2.8768e-05
-0.000177398
2.78795e-05
-0.000203762
2.63638e-05
-0.000227693
2.39313e-05
-0.000247946
2.02527e-05
-0.000262925
1.49796e-05
-0.000270713
7.78736e-06
-0.00026917
-1.54286e-06
-0.000256167
-1.30032e-05
-0.000230064
-2.61022e-05
-0.000190362
-3.97025e-05
-0.000138735
-5.16266e-05
-8.05109e-05
-5.82244e-05
-2.67591e-05
-5.37518e-05
-2.67591e-05
-2.49883e-05
3.54327e-05
-7.07709e-05
6.93612e-05
-0.000123699
8.11187e-05
-0.000178032
8.36262e-05
-0.000231544
8.27549e-05
-0.00028312
8.03443e-05
-0.000331763
7.65221e-05
-0.000376252
7.08526e-05
-0.00041502
6.26991e-05
-0.00044609
5.13236e-05
-0.000467049
3.59378e-05
-0.000475096
1.58344e-05
-0.000467389
-9.24951e-06
-0.000440889
-3.95033e-05
-0.000393533
-7.34577e-05
-0.000324958
-0.000108278
-0.000237988
-0.000138596
-0.000140919
-0.000155294
-5.04534e-05
-0.000144217
-7.72125e-05
-3.13404e-05
6.67732e-05
-8.70514e-05
0.000125072
-0.000150722
0.000144789
-0.000215604
0.000148509
-0.000279129
0.000146279
-0.000340007
0.000141223
-0.000397109
0.000133624
-0.0004491
0.000122844
-0.000494297
0.000107895
-0.000530573
8.75995e-05
-0.000555331
6.0696e-05
-0.00056554
2.60437e-05
-0.000557523
-1.72667e-05
-0.000527685
-6.93409e-05
-0.000473086
-0.000128058
-0.000392586
-0.000188778
-0.00028884
-0.000242341
-0.000171491
-0.000272642
-6.12256e-05
-0.000254483
-0.000138438
-3.37515e-05
0.000100525
-9.38251e-05
0.000185146
-0.000162277
0.000213241
-0.000231934
0.000218166
-0.000300213
0.000214558
-0.000365917
0.000206927
-0.000428036
0.000195743
-0.000485367
0.000180175
-0.000536347
0.000158876
-0.000578902
0.000130154
-0.000610307
9.21009e-05
-0.000627121
4.28574e-05
-0.000625148
-1.92397e-05
-0.000599173
-9.53155e-05
-0.000544391
-0.000182839
-0.000457507
-0.000275662
-0.000339837
-0.000360012
-0.000202324
-0.000410155
-7.1031e-05
-0.000385776
-0.000209469
-3.47449e-05
0.00013527
-9.72447e-05
0.000247646
-0.000168586
0.000284582
-0.000241362
0.000290943
-0.0003131
0.000286296
-0.000382827
0.000276654
-0.000449807
0.000262723
-0.000513137
0.000243505
-0.000571539
0.000217278
-0.000623142
0.000181757
-0.000665201
0.00013416
-0.000693785
7.14417e-05
-0.000703788
-9.237e-06
-0.000687922
-0.000111181
-0.000638259
-0.000232503
-0.000547593
-0.000366328
-0.000413819
-0.000493785
-0.000248229
-0.000575746
-8.54302e-05
-0.000548575
-0.000294899
-3.54004e-05
0.00017067
-9.99118e-05
0.000312157
-0.00017382
0.00035849
-0.000249516
0.000366638
-0.000324684
0.000361463
-0.000398668
0.000350638
-0.000471137
0.000335191
-0.000541654
0.000314023
-0.00060944
0.000285063
-0.000673067
0.000245385
-0.000730047
0.00019114
-0.000776223
0.000117617
-0.000805422
1.99624e-05
-0.000808054
-0.000108549
-0.000771486
-0.000269071
-0.000682036
-0.000455778
-0.000530299
-0.000645522
-0.000324031
-0.000782014
-0.00011003
-0.000762577
-0.000404929
-3.60399e-05
0.00020671
-0.000102628
0.000378745
-0.000179197
0.00043506
-0.000257899
0.00044534
-0.000336604
0.000440169
-0.000415056
0.00042909
-0.000493462
0.000413597
-0.000572061
0.000392622
-0.000650868
0.00036387
-0.000729321
0.000323838
-0.000805724
0.000267542
-0.000876367
0.000188261
-0.000934112
7.77073e-05
-0.000968113
-7.45481e-05
-0.000959744
-0.00027744
-0.000885481
-0.000530041
-0.000721145
-0.000809858
-0.000459264
-0.0010439
-0.000158307
-0.00106353
-0.000563236
-3.67202e-05
0.00024343
-0.000105544
0.000447568
-0.000184873
0.000514389
-0.000266535
0.000527002
-0.000348605
0.000522238
-0.000431291
0.000511776
-0.000515476
0.000497782
-0.000602306
0.000479451
-0.000692967
0.000454532
-0.000788343
0.000419214
-0.000888381
0.00036758
-0.000990977
0.000290857
-0.00109005
0.000176777
-0.00117567
1.10735e-05
-0.00122338
-0.000229731
-0.00119828
-0.000555142
-0.00104767
-0.000960468
-0.000718795
-0.00137277
-0.000265506
-0.00151682
-0.000828742
-3.74761e-05
0.000280906
-0.00010872
0.000518812
-0.000190805
0.000596474
-0.000275124
0.000611321
-0.00035994
0.000607055
-0.000445971
0.000597807
-0.000534875
0.000586687
-0.000628919
0.000573495
-0.000730867
0.00055648
-0.000843789
0.000532136
-0.000970599
0.00049439
-0.00111304
0.000433293
-0.00126977
0.000333516
-0.00143226
0.000173562
-0.00158598
-7.6012e-05
-0.00167918
-0.000461943
-0.00160557
-0.00103408
-0.00120612
-0.00177222
-0.000496394
-0.00222655
-0.00132514
-3.84382e-05
0.000319344
-0.000112388
0.000592762
-0.000197147
0.000681233
-0.000283529
0.000697703
-0.000369963
0.000693489
-0.000457674
0.000685517
-0.000549118
0.000678131
-0.000647764
0.000672141
-0.000758231
0.000666947
-0.000886474
0.000660379
-0.00103981
0.000647723
-0.00122657
0.000620054
-0.0014554
0.000562348
-0.00173308
0.000451248
-0.00205518
0.000246086
-0.00236437
-0.00015276
-0.00244266
-0.000955786
-0.00195444
-0.00226044
-0.000892459
-0.00328853
-0.00221759
-3.99281e-05
0.000359272
-0.000117147
0.000669981
-0.000204504
0.00076859
-0.000292101
0.000785301
-0.0003785
0.000779888
-0.000465389
0.000772406
-0.000555927
0.000768669
-0.000654654
0.000770868
-0.000767958
0.000780251
-0.000904841
0.000797261
-0.00107803
0.000820911
-0.00130562
0.000847645
-0.00161292
0.000869643
-0.00203104
0.000869372
-0.00256749
0.000782532
-0.00310855
0.000388307
-0.00331278
-0.000751561
-0.00272045
-0.00285277
-0.00140556
-0.00460341
-0.00362316
-4.26069e-05
0.000401879
-0.000124213
0.000751588
-0.000214207
0.000858584
-0.000301958
0.000873051
-0.000386198
0.000864128
-0.000469017
0.000855224
-0.000554029
0.000853681
-0.000646395
0.000863235
-0.000753649
0.000887505
-0.000887098
0.00093071
-0.00106416
0.00099797
-0.00131209
0.00109558
-0.00167136
0.00122892
-0.00218484
0.00138285
-0.00284666
0.00144435
-0.00346112
0.00100276
-0.00364614
-0.00056654
-0.00308587
-0.00341303
-0.0018617
-0.00582759
-0.00548485
-4.75252e-05
0.000449404
-0.000135472
0.000839534
-0.000228483
0.000951596
-0.000315357
0.000959925
-0.000395026
0.000943797
-0.000469921
0.000930119
-0.000543877
0.000927637
-0.000621785
0.000941143
-0.000710834
0.000976554
-0.000822277
0.00104215
-0.000974147
0.00114984
-0.00119474
0.00131616
-0.00152392
0.00155811
-0.0019885
0.00184743
-0.00254518
0.00200103
-0.00300399
0.00146158
-0.00313913
-0.000431402
-0.00283194
-0.00372022
-0.00191557
-0.00674396
-0.00740043
-5.78481e-05
0.000507253
-0.000155713
0.000937399
-0.000251375
0.00104726
-0.000334819
0.00104337
-0.000406872
0.00101585
-0.000470422
0.000993669
-0.000528281
0.000985497
-0.000584074
0.000996935
-0.000642728
0.00103521
-0.000711609
0.00111103
-0.000802275
0.00124051
-0.000930402
0.00144429
-0.00111542
0.00174313
-0.00135478
0.00208678
-0.00161481
0.00226106
-0.00180574
0.0016525
-0.00191539
-0.000321745
-0.0019589
-0.00367672
-0.00148896
-0.0072139
-0.00888938
-7.05208e-05
0.000577773
-0.000181844
0.00104872
-0.000284085
0.0011495
-0.000367883
0.00112717
-0.000432092
0.00108006
-0.000480645
0.00104222
-0.000516735
0.00102159
-0.000542504
0.0010227
-0.000559238
0.00105194
-0.000567771
0.00111957
-0.000569233
0.00124197
-0.00056086
0.00143592
-0.000539005
0.00172127
-0.00048066
0.00202844
-0.000401305
0.00218171
-0.000352629
0.00160383
-0.000440271
-0.000234103
-0.000820103
-0.00329689
-0.000896334
-0.00713767
-0.00978572
-0.000137808
0.000715581
-0.000263783
0.0011747
-0.000352729
0.00123844
-0.000413337
0.00118777
-0.000456606
0.00112333
-0.000486321
0.00107194
-0.000501895
0.00103716
-0.00050051
0.00102132
-0.000477968
0.0010294
-0.000427311
0.00106891
-0.000339228
0.00115389
-0.000197672
0.00129436
2.10736e-05
0.00150253
0.000316005
0.00173351
0.000669129
0.00182858
0.000911415
0.00136154
0.00081765
-0.000140338
0.000114557
-0.00259379
-0.000371051
-0.00665206
-0.0101568
-8.96487e-05
0.00080523
-0.000279837
0.00136489
-0.000410418
0.00136903
-0.000489343
0.0012667
-0.000530595
0.00116458
-0.000544105
0.00108545
-0.000533168
0.00102622
-0.000496545
0.000984697
-0.00042941
0.000962266
-0.000320339
0.000959839
-0.00015468
0.000988226
8.90489e-05
0.00105063
0.000430912
0.00116066
0.000886039
0.00127838
0.00139309
0.00132154
0.00174897
0.00100566
0.00162565
-1.70193e-05
0.000856435
-0.00182458
0.000176548
-0.00597217
-0.00998022
-0.000384334
0.00118956
-0.00045653
0.00143708
-0.000525182
0.00143768
-0.000584818
0.00132633
-0.000598451
0.00117821
-0.000572185
0.00105918
-0.000510963
0.000965001
-0.000414415
0.000888148
-0.000283678
0.000831529
-0.000110273
0.000786433
0.000113545
0.000764408
0.000404462
0.000759716
0.00077851
0.000786615
0.00123328
0.000823613
0.00173788
0.000816932
0.00210669
0.000636852
0.00220568
-0.000116013
0.00176203
-0.00138093
0.000942843
-0.00515298
-0.00903738
-0.00136038
0.00254994
-0.0013266
0.00140331
-0.00107658
0.00118765
-0.000715442
0.000965201
-0.000332654
0.000795425
5.42911e-05
0.000672237
0.000433437
0.000585855
0.000803308
0.000518278
0.00116512
0.000469721
0.00152324
0.000428308
0.00188671
0.000400941
0.00226364
0.000382782
0.00268092
0.000369343
0.00314139
0.000363139
0.00365876
0.000299559
0.00411897
0.000176645
0.00428373
-0.00028077
0.00409198
-0.00118918
0.00257439
-0.0036354
-0.00646298
0.00254994
0.00395325
0.0051409
0.0061061
0.00690153
0.00757376
0.00815962
0.00867789
0.00914762
0.00957592
0.00997686
0.0103596
0.010729
0.0110921
0.0113917
0.0115683
0.0112876
0.0100984
0.00646298
)
;

boundaryField
{
    movingWall
    {
        type            calculated;
        value           uniform 0;
    }
    fixedWalls
    {
        type            calculated;
        value           uniform 0;
    }
    frontAndBack
    {
        type            empty;
        value           nonuniform List<scalar> 0();
    }
}


// ************************************************************************* //
