/*--------------------------------*- C++ -*----------------------------------*\
  =========                 |
  \\      /  F ield         | OpenFOAM: The Open Source CFD Toolbox
   \\    /   O peration     | Website:  https://openfoam.org
    \\  /    A nd           | Version:  10
     \\/     M anipulation  |
\*---------------------------------------------------------------------------*/
FoamFile
{
    format      ascii;
    class       volScalarField;
    location    "0.975";
    object      p;
}
// * * * * * * * * * * * * * * * * * * * * * * * * * * * * * * * * * * * * * //

dimensions      [0 2 -2 0 0 0 0];

internalField   nonuniform List<scalar> 
400
(
-8.6702e-10
3.90025e-05
0.000166125
0.00036743
0.000638637
0.000973278
0.00136325
0.00179906
0.00227003
0.00276448
0.0032699
0.00377324
0.00426114
0.00472025
0.00513757
0.00550088
0.00579912
0.006023
0.00616592
0.00621212
-3.89458e-05
1.11949e-07
0.000128733
0.000332179
0.000606312
0.00094466
0.00133907
0.00177999
0.00225667
0.00275731
0.00326931
0.00377949
0.0042743
0.0047402
0.00516396
0.0055331
0.00583629
0.00606404
0.00620966
0.00625643
-0.00016834
-0.000128334
5.19022e-06
0.000216463
0.000501211
0.000852726
0.00126258
0.00172093
0.0022167
0.00273774
0.0032711
0.00380307
0.00431967
0.00480676
0.00525047
0.00563758
0.00595601
0.00619551
0.00634881
0.0063978
-0.000381472
-0.000339366
-0.000197678
2.65855e-05
0.000328891
0.000702126
0.0011374
0.00162435
0.00215138
0.00270578
0.00327396
0.00384157
0.00439379
0.00491558
0.00539201
0.00580865
0.00615219
0.00641111
0.00657716
0.00663034
-0.000683594
-0.00063836
-0.00048502
-0.000242279
8.49346e-05
0.000488907
0.000960062
0.00148734
0.00205837
0.00265971
0.00327693
0.00389478
0.00449738
0.00506842
0.00559148
0.00605047
0.0064302
0.0067173
0.00690192
0.00696142
-0.00108249
-0.00103307
-0.000864266
-0.000597074
-0.000236995
0.000207417
0.000725661
0.00130573
0.00193432
0.00259702
0.00327845
0.00396227
0.00463127
0.00526759
0.00585291
0.00636886
0.00679767
0.00712328
0.00733352
0.00740191
-0.00158831
-0.00153357
-0.00134503
-0.00104674
-0.000645012
-0.000149549
0.000427927
0.00107421
0.00177487
0.00251439
0.0032763
0.00404311
0.00479612
0.00551564
0.00618105
0.00677104
0.00726439
0.00764121
0.00788586
0.00796649
-0.00221414
-0.00215278
-0.00193957
-0.0016026
-0.00114931
-0.000590982
5.9073e-05
0.000786161
0.00157451
0.00240744
0.00326734
0.00413563
0.00499207
0.00581504
0.00658121
0.00726567
0.00784261
0.00828678
0.00857738
0.00867483
-0.0029765
-0.00290697
-0.00266321
-0.00227864
-0.00176233
-0.00112773
-0.000390241
0.000433611
0.00132653
0.00227062
0.00324726
0.004237
0.0052183
0.00616763
0.00705875
0.0078625
0.0085471
0.00907984
0.00943206
0.00955304
-0.00389615
-0.00381647
-0.00353489
-0.00309188
-0.00249896
-0.00177257
-0.000930872
7.31416e-06
0.001023
0.00209712
0.00321034
0.00434277
0.00547222
0.0065737
0.00761817
0.00857167
0.00939499
0.010045
0.0104811
0.0106361
-0.00499937
-0.0049067
-0.00457794
-0.00406286
-0.00337669
-0.00254012
-0.00157503
-0.000503062
0.000654895
0.00187881
0.00314909
0.0044463
0.00574855
0.00703062
0.00826153
0.00940238
0.0104051
0.0112125
0.0117649
0.0119716
-0.00632001
-0.0062097
-0.00582128
-0.00521622
-0.0044158
-0.00344672
-0.00233584
-0.0011084
0.000212591
0.00160647
0.00305421
0.00453805
0.00603816
0.00753105
0.0089859
0.0103603
0.0115961
0.0126181
0.0133363
0.0136265
-0.00790304
-0.00776648
-0.00730114
-0.00658156
-0.00563943
-0.00450982
-0.00322633
-0.00181899
-0.000313179
0.00127041
0.00291461
0.00460509
0.00632653
0.00806042
0.00977976
0.0114425
0.0129824
0.0143028
0.0152636
0.0156987
-0.00981179
-0.00963112
-0.00906395
-0.0081945
-0.00707339
-0.00574666
-0.00425784
-0.00264299
-0.000929822
0.000861745
0.0027182
0.00463077
0.00659213
0.00859344
0.0106177
0.0126302
0.0145646
0.0163089
0.0176355
0.0183347
-0.0121243
-0.0118737
-0.0111705
-0.0100981
-0.0087451
-0.00717264
-0.00543799
-0.00358414
-0.00164077
0.0003744
0.00245393
0.0045953
0.00680535
0.00909039
0.0114523
0.0138768
0.0163125
0.0186677
0.020545
0.0217932
-0.0150876
-0.0146326
-0.013715
-0.0123445
-0.0106823
-0.00879802
-0.00676641
-0.00463758
-0.00244177
-0.000192597
0.00210994
0.00447691
0.00692858
0.00949411
0.0122052
0.0150855
0.0181226
0.0213362
0.0240189
0.0264929
-0.0182101
-0.0178449
-0.0167465
-0.0149811
-0.0129054
-0.0106209
-0.00822837
-0.00578404
-0.00331589
-0.000829566
0.00168677
0.00425769
0.00691961
0.00972659
0.0127466
0.0160609
0.0197224
0.0241522
0.0278212
0.033077
-0.02511
-0.0221885
-0.020671
-0.0181208
-0.0154241
-0.0126039
-0.00977031
-0.00697113
-0.0042194
-0.00150459
0.00120144
0.00394567
0.00676123
0.00975741
0.0130653
0.0169237
0.0214085
0.0277428
0.0332981
0.0431546
-0.0290207
-0.0282295
-0.0256564
-0.0222613
-0.0185682
-0.0148981
-0.0114437
-0.0082073
-0.00514631
-0.00221444
0.000636149
0.00345664
0.00632275
0.00928252
0.0123768
0.016013
0.0190801
0.0274142
0.030019
0.0519666
-0.0550863
-0.0302367
-0.0281714
-0.0238715
-0.0195265
-0.0156469
-0.0120644
-0.00870282
-0.00554102
-0.00253578
0.000365875
0.00322204
0.00609478
0.00913073
0.0124478
0.0169739
0.0224402
0.0351073
0.0506935
0.0991437
)
;

boundaryField
{
    movingWall
    {
        type            zeroGradient;
    }
    fixedWalls
    {
        type            zeroGradient;
    }
    frontAndBack
    {
        type            empty;
    }
}


// ************************************************************************* //
