/*--------------------------------*- C++ -*----------------------------------*\
  =========                 |
  \\      /  F ield         | OpenFOAM: The Open Source CFD Toolbox
   \\    /   O peration     | Website:  https://openfoam.org
    \\  /    A nd           | Version:  10
     \\/     M anipulation  |
\*---------------------------------------------------------------------------*/
FoamFile
{
    format      ascii;
    class       surfaceScalarField;
    location    "3.8";
    object      phi;
}
// * * * * * * * * * * * * * * * * * * * * * * * * * * * * * * * * * * * * * //

dimensions      [0 3 -1 0 0 0 0];

internalField   nonuniform List<scalar> 
760
(
-9.53873e-06
9.53872e-06
-2.93384e-05
1.97996e-05
-5.11792e-05
2.18409e-05
-7.25495e-05
2.13703e-05
-9.2681e-05
2.01315e-05
-0.000111122
1.84414e-05
-0.000127436
1.6314e-05
-0.000141155
1.3719e-05
-0.000151783
1.06271e-05
-0.000158802
7.01898e-06
-0.000161694
2.892e-06
-0.000159963
-1.7303e-06
-0.000153193
-6.77047e-06
-0.000141107
-1.20861e-05
-0.000123643
-1.74637e-05
-0.000101041
-2.26021e-05
-7.39911e-05
-2.70498e-05
-4.40643e-05
-2.99267e-05
-1.54034e-05
-2.86609e-05
-1.54034e-05
-2.05025e-05
3.00413e-05
-5.55863e-05
5.48834e-05
-9.32799e-05
5.95345e-05
-0.000129852
5.7942e-05
-0.000163972
5.42515e-05
-0.000194799
4.92688e-05
-0.000221571
4.30859e-05
-0.000243535
3.56835e-05
-0.000259945
2.70368e-05
-0.000270063
1.71371e-05
-0.000273173
6.00139e-06
-0.000268689
-6.21414e-06
-0.000256056
-1.94034e-05
-0.000235
-3.31421e-05
-0.000205558
-4.69061e-05
-0.000168207
-5.99531e-05
-0.000124073
-7.1183e-05
-7.55651e-05
-7.8435e-05
-2.85952e-05
-7.56308e-05
-4.39987e-05
-2.39913e-05
5.40326e-05
-6.41864e-05
9.50785e-05
-0.000107093
0.000102441
-0.000148592
9.94403e-05
-0.000187232
9.28921e-05
-0.000222095
8.41314e-05
-0.000252346
7.33372e-05
-0.000277172
6.05091e-05
-0.000295765
4.56304e-05
-0.000307335
2.87073e-05
-0.000311144
9.80991e-06
-0.000306375
-1.09831e-05
-0.000292457
-3.33214e-05
-0.000269004
-5.65947e-05
-0.000235946
-7.99648e-05
-0.000193695
-0.000102204
-0.000143418
-0.00012146
-8.77759e-05
-0.000134077
-3.35021e-05
-0.000129905
-7.75008e-05
-2.55353e-05
7.95679e-05
-6.84181e-05
0.000137961
-0.000114142
0.000148165
-0.000158378
0.000143677
-0.000199653
0.000134167
-0.000237041
0.00012152
-0.000269704
0.000106
-0.000296815
8.76194e-05
-0.000317537
6.63526e-05
-0.000331022
4.21926e-05
-0.000336424
1.52113e-05
-0.000332854
-1.45533e-05
-0.000319432
-4.67425e-05
-0.000295512
-8.05153e-05
-0.000260743
-0.000114733
-0.000215309
-0.000147638
-0.000160267
-0.000176502
-9.85009e-05
-0.000195843
-3.76751e-05
-0.00019073
-0.000115176
-2.70595e-05
0.000106627
-7.27295e-05
0.000183631
-0.000121451
0.000196887
-0.000168668
0.000190893
-0.000212885
0.000178384
-0.000253192
0.000161827
-0.000288767
0.000141575
-0.000318786
0.000117638
-0.000342393
8.99595e-05
-0.000358674
5.84738e-05
-0.000366645
2.31821e-05
-0.000365236
-1.59623e-05
-0.000353236
-5.87422e-05
-0.000329572
-0.000104179
-0.000293388
-0.000150917
-0.000244377
-0.000196649
-0.000183335
-0.000237545
-0.000113392
-0.000265786
-4.35746e-05
-0.000260548
-0.00015875
-2.89964e-05
0.000135624
-7.81567e-05
0.000232792
-0.000130637
0.000249367
-0.000181589
0.000241845
-0.000229496
0.000226291
-0.000273479
0.00020581
-0.000312754
0.00018085
-0.000346524
0.000151409
-0.000373934
0.00011737
-0.000394019
7.8558e-05
-0.000405656
3.48193e-05
-0.000407567
-1.40508e-05
-0.000398065
-6.82447e-05
-0.000375489
-0.000126755
-0.000338208
-0.000188198
-0.000285065
-0.000249792
-0.000216241
-0.000306369
-0.000135018
-0.000347009
-5.23677e-05
-0.000343198
-0.000211118
-3.14332e-05
0.000167057
-8.49235e-05
0.000286282
-0.000142033
0.000306477
-0.000197549
0.000297361
-0.000249941
0.000278683
-0.000298382
0.000254252
-0.000342162
0.000224629
-0.000380557
0.000189804
-0.000412759
0.000149572
-0.000437791
0.00010359
-0.000454422
5.14496e-05
-0.00046117
-7.30226e-06
-0.000455788
-7.36267e-05
-0.000435816
-0.000146727
-0.00039847
-0.000225544
-0.000341176
-0.000307086
-0.000262806
-0.000384739
-0.000166409
-0.000443407
-6.56101e-05
-0.000443996
-0.000276728
-3.44081e-05
0.000201465
-9.31324e-05
0.000345006
-0.000155771
0.000369115
-0.000216673
0.000358264
-0.000274303
0.000336313
-0.000327928
0.000307877
-0.000376962
0.000273663
-0.00042082
0.000233662
-0.000458822
0.000187574
-0.000490069
0.000134838
-0.000513284
7.46645e-05
-0.000526915
6.3289e-06
-0.000528053
-7.24887e-05
-0.000513294
-0.000161486
-0.000478222
-0.000260616
-0.000417987
-0.000367321
-0.000328901
-0.000473825
-0.000212661
-0.000559646
-8.62706e-05
-0.000570387
-0.000362999
-3.79841e-05
0.000239449
-0.000102926
0.000409949
-0.000172017
0.000438206
-0.000239092
0.000425338
-0.000302634
0.000399855
-0.000362054
0.000367297
-0.000416963
0.000328573
-0.000467011
0.00028371
-0.000511767
0.000232329
-0.000550571
0.000173641
-0.000582329
0.000106423
-0.000605128
2.91277e-05
-0.000616325
-6.12912e-05
-0.000611011
-0.000166801
-0.000582722
-0.000288905
-0.000523172
-0.000426871
-0.000424041
-0.000572956
-0.000283068
-0.000700619
-0.000120599
-0.000732856
-0.000483598
-4.22844e-05
0.000281734
-0.000114558
0.000482222
-0.00019106
0.000514708
-0.000265034
0.000499312
-0.000335029
0.00046985
-0.000400672
0.00043294
-0.00046186
0.000389761
-0.000518591
0.000340442
-0.00057084
0.000284578
-0.000618385
0.000221187
-0.000660556
0.000148593
-0.000695778
6.43501e-05
-0.000721541
-3.55278e-05
-0.000732031
-0.000156311
-0.000718452
-0.000302483
-0.000667767
-0.000477556
-0.000563888
-0.000676835
-0.000395694
-0.000868813
-0.000182816
-0.000945734
-0.000666414
-4.75423e-05
0.000329276
-0.00012847
0.00056315
-0.000213387
0.000599624
-0.000294895
0.00058082
-0.00037169
0.000546645
-0.000443709
0.000504959
-0.000511242
0.000457293
-0.000574763
0.000403962
-0.000634827
0.000344642
-0.000691924
0.000278284
-0.000746218
0.000202886
-0.000797023
0.000115155
-0.000843129
1.05782e-05
-0.00087834
-0.000121101
-0.000892493
-0.00028833
-0.000867106
-0.000502943
-0.000774592
-0.000769349
-0.000587195
-0.00105621
-0.000308229
-0.0012247
-0.000974643
-5.41955e-05
0.000383471
-0.000145437
0.000654392
-0.000239819
0.000694006
-0.000329341
0.000670342
-0.000413
0.000630305
-0.000491173
0.000583131
-0.000564647
0.000530767
-0.000634489
0.000473804
-0.000702007
0.000412161
-0.000768705
0.000344983
-0.000836161
0.000270342
-0.000905661
0.000184654
-0.000976915
8.18331e-05
-0.00104837
-4.96456e-05
-0.00111022
-0.000226482
-0.0011406
-0.000472557
-0.00109855
-0.000811402
-0.000926981
-0.00122778
-0.000571513
-0.00158017
-0.00154616
-6.30925e-05
0.000446564
-0.000166802
0.000758101
-0.000271685
0.000798889
-0.000369437
0.000768093
-0.000459627
0.000720496
-0.00054324
0.000666745
-0.000621655
0.000609181
-0.000696583
0.000548732
-0.00077015
0.000485728
-0.000845033
0.000419866
-0.000924617
0.000349926
-0.00101301
0.000273045
-0.00111466
0.000183489
-0.00123441
7.01011e-05
-0.0013702
-9.0694e-05
-0.00150571
-0.000337041
-0.001591
-0.00072612
-0.00150982
-0.00130896
-0.00106951
-0.00202048
-0.00261566
-7.60022e-05
0.000522566
-0.000195148
0.000877247
-0.000311156
0.000914897
-0.000416693
0.000873631
-0.000512528
0.00081633
-0.00060035
0.000754566
-0.000682082
0.000690914
-0.000760022
0.000626672
-0.000837054
0.00056276
-0.000917008
0.00049982
-0.00100533
0.000438245
-0.00110995
0.000377667
-0.00124218
0.000315724
-0.00141641
0.000244324
-0.00164949
0.000142393
-0.00194735
-3.91791e-05
-0.00225573
-0.000417747
-0.0023334
-0.00123128
-0.00172853
-0.00262536
-0.00434419
-9.26326e-05
0.000615199
-0.00023115
0.00101576
-0.000360288
0.00104404
-0.000474439
0.000987782
-0.000574678
0.00091657
-0.000664218
0.000844106
-0.00074634
0.000773036
-0.000823969
0.000704301
-0.000900159
0.00063895
-0.000978836
0.000578497
-0.00106637
0.000525775
-0.00117379
0.000485088
-0.00132055
0.000462483
-0.00153767
0.000461448
-0.00186759
0.00047231
-0.00233335
0.000426583
-0.00286254
0.000111447
-0.0029872
-0.00110662
-0.00206545
-0.00354711
-0.00640964
-0.000152864
0.000768063
-0.000304036
0.00116694
-0.000430985
0.00117098
-0.000539947
0.00109674
-0.00063814
0.00101476
-0.000727535
0.000933501
-0.000809542
0.000855042
-0.000885431
0.000780191
-0.00095738
0.000710899
-0.00102851
0.000649631
-0.00110501
0.000602275
-0.00119748
0.000577555
-0.00132773
0.000592729
-0.00153069
0.00066441
-0.00186187
0.000803489
-0.00231423
0.000878939
-0.00281676
0.000613982
-0.00286163
-0.00106175
-0.00180448
-0.00460427
-0.00821412
-0.000108392
0.000876455
-0.000326666
0.00138521
-0.00049989
0.00134421
-0.000634735
0.00123159
-0.000738965
0.00111899
-0.000820827
0.00101536
-0.000887163
0.000921378
-0.000942079
0.000835107
-0.000988716
0.000757536
-0.00102788
0.000688792
-0.00106148
0.000635881
-0.0010923
0.000608373
-0.00113122
0.000631646
-0.00119146
0.000724658
-0.00132175
0.000933773
-0.00149453
0.00105172
-0.00175109
0.000870543
-0.00180753
-0.00100531
-0.0011388
-0.00527299
-0.00935292
-0.000392112
0.00126857
-0.000515147
0.00150824
-0.000627754
0.00145682
-0.000729951
0.00133379
-0.000789345
0.00117839
-0.000816217
0.00104224
-0.000820891
0.000926052
-0.000808288
0.000822504
-0.000785147
0.000734396
-0.000750062
0.000653707
-0.000706401
0.000592219
-0.00064512
0.000547092
-0.00056227
0.000548796
-0.000430108
0.000592496
-0.000228728
0.000732393
1.37345e-05
0.000809262
0.000390736
0.000493541
0.000383169
-0.000997743
0.000266504
-0.00515633
-0.00908642
-0.00131048
0.00257905
-0.00124885
0.00144662
-0.0010048
0.00121277
-0.000662072
0.000991053
-0.000302416
0.000818731
5.01046e-05
0.000689715
0.000380514
0.000595643
0.000685751
0.000517266
0.000965947
0.000454199
0.0012194
0.00040025
0.00146057
0.000351052
0.00168641
0.000321249
0.00194088
0.000294334
0.00223888
0.000294493
0.00268515
0.00028612
0.00327486
0.000219552
0.00386696
-9.85615e-05
0.00393424
-0.00106502
0.00251887
-0.00374096
-0.00656755
0.00257905
0.00402566
0.00523843
0.00622948
0.00704821
0.00773793
0.00833357
0.00885084
0.00930504
0.00970529
0.0100563
0.0103776
0.0106719
0.0109664
0.0112525
0.0114721
0.0113735
0.0103085
0.00656755
)
;

boundaryField
{
    movingWall
    {
        type            calculated;
        value           uniform 0;
    }
    fixedWalls
    {
        type            calculated;
        value           uniform 0;
    }
    frontAndBack
    {
        type            empty;
        value           nonuniform List<scalar> 0();
    }
}


// ************************************************************************* //
