/*--------------------------------*- C++ -*----------------------------------*\
  =========                 |
  \\      /  F ield         | OpenFOAM: The Open Source CFD Toolbox
   \\    /   O peration     | Website:  https://openfoam.org
    \\  /    A nd           | Version:  10
     \\/     M anipulation  |
\*---------------------------------------------------------------------------*/
FoamFile
{
    format      ascii;
    class       volScalarField;
    location    "9.975";
    object      p;
}
// * * * * * * * * * * * * * * * * * * * * * * * * * * * * * * * * * * * * * //

dimensions      [0 2 -2 0 0 0 0];

internalField   nonuniform List<scalar> 
475
(
-0.0289179
-0.0543149
-0.0835747
-0.107033
-0.129516
-0.0547529
-0.0680728
-0.0843567
-0.103416
-0.120416
-0.0528949
-0.0623095
-0.0772549
-0.094749
-0.111162
-0.0523059
-0.0631534
-0.0780209
-0.0935494
-0.107204
-0.0225086
-0.0494245
-0.0731212
-0.0908615
-0.103774
-0.147665
-0.158783
-0.163296
-0.164745
-0.165489
-0.166265
-0.167252
-0.168055
-0.167983
-0.16634
-0.162634
-0.156592
-0.148239
-0.137933
-0.126342
-0.114008
-0.10133
-0.0885882
-0.0766543
-0.0674358
-0.0621103
-0.0604331
-0.060997
-0.0621485
-0.0630422
-0.063566
-0.064008
-0.0644903
-0.064573
-0.0638172
-0.0616718
-0.0583487
-0.053857
-0.0482674
-0.0420627
-0.0354134
-0.0289923
-0.022944
-0.0174844
-0.0128376
-0.00893061
-0.00586034
-0.00348299
-0.00165376
-0.000372027
-0.13709
-0.148749
-0.154647
-0.156209
-0.155789
-0.154689
-0.153156
-0.151153
-0.148529
-0.14519
-0.141111
-0.13632
-0.130866
-0.124717
-0.117929
-0.110205
-0.101384
-0.0914717
-0.0820256
-0.0750362
-0.0713988
-0.0707812
-0.0721989
-0.073907
-0.0749985
-0.0752133
-0.0750381
-0.0747883
-0.0741199
-0.0725834
-0.0697264
-0.0656396
-0.0600639
-0.0533025
-0.0456808
-0.0375603
-0.0296598
-0.0221195
-0.0154687
-0.00985873
-0.00542603
-0.00232261
-0.000305553
0.000605829
0.00063045
-0.124641
-0.134292
-0.140034
-0.142353
-0.142198
-0.14042
-0.137498
-0.133837
-0.129652
-0.125347
-0.121288
-0.118234
-0.116754
-0.116809
-0.116343
-0.112075
-0.102864
-0.0925612
-0.0854741
-0.0817498
-0.079342
-0.077694
-0.0768593
-0.0765418
-0.0764684
-0.0764532
-0.0764663
-0.0763415
-0.0758207
-0.0741959
-0.0713787
-0.067083
-0.0612805
-0.0542265
-0.0461397
-0.037619
-0.0290937
-0.0210342
-0.0139232
-0.00797994
-0.00344407
-0.000377456
0.00139455
0.00177508
0.00115631
-0.118168
-0.126193
-0.131271
-0.133466
-0.133062
-0.1305
-0.126297
-0.120951
-0.114889
-0.108917
-0.103959
-0.101792
-0.103655
-0.111088
-0.120654
-0.120154
-0.106632
-0.0881862
-0.0772308
-0.075511
-0.0785034
-0.0811685
-0.0822627
-0.0817285
-0.0804402
-0.0790339
-0.0777762
-0.0766884
-0.0753543
-0.0733207
-0.0702101
-0.0657386
-0.0599413
-0.052881
-0.0449324
-0.0364852
-0.0280231
-0.0200832
-0.0130266
-0.00722255
-0.00276315
0.000210532
0.00184459
0.00204398
0.00134133
-0.113596
-0.12096
-0.125821
-0.12796
-0.12739
-0.124376
-0.119492
-0.11329
-0.10653
-0.099924
-0.0949052
-0.0927992
-0.0959601
-0.105749
-0.116668
-0.120471
-0.112701
-0.0999757
-0.0886975
-0.0819921
-0.0798773
-0.0796958
-0.0796444
-0.0793078
-0.0787036
-0.0779438
-0.0770879
-0.0760354
-0.0745269
-0.0722127
-0.0688027
-0.0641655
-0.0582778
-0.0512375
-0.0433861
-0.0351006
-0.0268899
-0.0191194
-0.0122883
-0.00662687
-0.00230177
0.000582152
0.00212769
0.00226797
0.00159815
-0.17229
-0.172642
-0.172919
-0.173487
-0.174173
-0.175197
-0.176725
-0.178691
-0.180413
-0.18084
-0.178564
-0.172469
-0.162006
-0.147215
-0.128544
-0.107048
-0.0842274
-0.0618361
-0.0413218
-0.0237395
-0.00972475
0.000369288
0.00664465
0.0095259
0.00969468
0.00788595
0.00483057
0.00113109
-0.0028317
-0.00664946
-0.0103056
-0.0137754
-0.0169844
-0.0198227
-0.0221587
-0.0238401
-0.0247674
-0.0249247
-0.024323
-0.0229025
-0.0206282
-0.0174549
-0.0133874
-0.00855715
-0.00304628
-0.167266
-0.169179
-0.169792
-0.171068
-0.172631
-0.174654
-0.177212
-0.180067
-0.18263
-0.18383
-0.182238
-0.176805
-0.166964
-0.152459
-0.133804
-0.112129
-0.0887746
-0.0661031
-0.0452954
-0.0274877
-0.0133261
-0.00300852
0.00351346
0.00663868
0.00708704
0.00559513
0.0028487
-0.000521681
-0.00417202
-0.00794033
-0.0114431
-0.0146438
-0.0175354
-0.0200483
-0.0220667
-0.0235333
-0.0244006
-0.0246091
-0.0240968
-0.0228012
-0.0206951
-0.0177347
-0.0137525
-0.00889514
-0.00334113
-0.176107
-0.174973
-0.174431
-0.174181
-0.174755
-0.176377
-0.179014
-0.182256
-0.185195
-0.186935
-0.185493
-0.180062
-0.170212
-0.155836
-0.137443
-0.116159
-0.0935773
-0.0715921
-0.051595
-0.0345331
-0.0209899
-0.0112486
-0.00521735
-0.00243234
-0.00211931
-0.00353035
-0.0060038
-0.00901817
-0.0121932
-0.0152684
-0.0181063
-0.0203534
-0.022026
-0.0232332
-0.0241157
-0.0246814
-0.0248536
-0.0246044
-0.0237672
-0.0223309
-0.0202058
-0.0172742
-0.0134722
-0.0087439
-0.00336824
-0.163777
-0.166656
-0.168216
-0.16994
-0.171687
-0.174015
-0.177043
-0.180484
-0.183515
-0.185029
-0.183714
-0.17848
-0.168987
-0.155329
-0.138115
-0.118492
-0.0979413
-0.078056
-0.0601678
-0.045166
-0.0336043
-0.0256802
-0.0211101
-0.0192638
-0.019369
-0.0207427
-0.0227749
-0.025059
-0.0272208
-0.0290172
-0.0304207
-0.0309848
-0.0307588
-0.0299109
-0.028772
-0.0274272
-0.0257873
-0.0240486
-0.0221442
-0.020066
-0.0176597
-0.0147818
-0.0114215
-0.00736727
-0.00286541
-0.199739
-0.180817
-0.177523
-0.17505
-0.174138
-0.174906
-0.176714
-0.178882
-0.180555
-0.180631
-0.178093
-0.172268
-0.162913
-0.150251
-0.13503
-0.118227
-0.100959
-0.0843208
-0.0694749
-0.0575488
-0.0492641
-0.0444584
-0.042325
-0.0418817
-0.0424606
-0.0436275
-0.0450662
-0.0465165
-0.0476009
-0.0479884
-0.0472605
-0.0454589
-0.0428453
-0.0394255
-0.035569
-0.0314874
-0.0273915
-0.023496
-0.0198414
-0.0165477
-0.0135184
-0.0105831
-0.00772892
-0.00477942
-0.00176656
)
;

boundaryField
{
    inlet
    {
        type            zeroGradient;
    }
    outlet
    {
        type            fixedValue;
        value           uniform 0;
    }
    upperWall
    {
        type            zeroGradient;
    }
    lowerWall
    {
        type            zeroGradient;
    }
    frontAndBack
    {
        type            empty;
    }
}


// ************************************************************************* //
