/*--------------------------------*- C++ -*----------------------------------*\
  =========                 |
  \\      /  F ield         | OpenFOAM: The Open Source CFD Toolbox
   \\    /   O peration     | Website:  https://openfoam.org
    \\  /    A nd           | Version:  10
     \\/     M anipulation  |
\*---------------------------------------------------------------------------*/
FoamFile
{
    format      ascii;
    class       volScalarField;
    location    "1.725";
    object      p;
}
// * * * * * * * * * * * * * * * * * * * * * * * * * * * * * * * * * * * * * //

dimensions      [0 2 -2 0 0 0 0];

internalField   nonuniform List<scalar> 
475
(
0.0102589
-0.0190758
-0.0454942
-0.0676541
-0.0923758
-0.0175536
-0.0310554
-0.0508489
-0.0714902
-0.0936548
-0.0172074
-0.0261722
-0.0427565
-0.0618952
-0.0791137
-0.0168677
-0.027139
-0.0427643
-0.059461
-0.0727176
0.0127704
-0.0136698
-0.0374964
-0.0557949
-0.067092
-0.11031
-0.153766
-0.23134
-0.281096
-0.279377
-0.212174
-0.119946
-0.0449569
0.000729074
0.0226763
0.0344079
0.0464297
0.0578705
0.0654052
0.0694585
0.0705617
0.0700916
0.0687519
0.0669195
0.064799
0.0625083
0.0601168
0.0576632
0.0551698
0.0526503
0.0501136
0.0475651
0.0450086
0.0424468
0.0398811
0.0373127
0.0347423
0.0321707
0.0295982
0.0270252
0.024452
0.0218784
0.0193048
0.0167308
0.0141569
0.011583
0.00900873
0.00643484
0.00386096
0.00128691
-0.121541
-0.149467
-0.174496
-0.18887
-0.175763
-0.126688
-0.064804
-0.0179299
0.00475058
0.0169669
0.0294994
0.0432591
0.0538416
0.0603057
0.0639549
0.0659069
0.0663985
0.0659202
0.0648271
0.0632986
0.0614559
0.0593897
0.0571668
0.0548345
0.0524259
0.0499642
0.0474661
0.0449436
0.0424044
0.0398537
0.0372952
0.0347314
0.0321641
0.0295943
0.0270231
0.024451
0.021878
0.0193048
0.016731
0.0141572
0.0115833
0.00900898
0.00643505
0.00386108
0.00128695
-0.0955778
-0.109444
-0.119992
-0.122645
-0.116682
-0.095483
-0.0605332
-0.0277702
-0.0105577
0.00185703
0.0232818
0.0448842
0.0565252
0.0612475
0.06374
0.0648965
0.065288
0.0649965
0.0641037
0.0627406
0.0610304
0.059069
0.0569274
0.0546574
0.0522966
0.049872
0.0474023
0.0449003
0.0423756
0.039835
0.0372834
0.0347242
0.0321599
0.0295921
0.0270221
0.0244507
0.0218781
0.0193051
0.0167314
0.0141575
0.0115836
0.00900928
0.00643529
0.00386121
0.001287
-0.0838172
-0.0921727
-0.0935199
-0.0891962
-0.081812
-0.0673081
-0.0473646
-0.0319846
-0.0224583
-0.0113445
0.00470715
0.0217805
0.0363795
0.0475054
0.0550106
0.0595719
0.0619726
0.0628582
0.0626938
0.0618028
0.0604068
0.0586576
0.05666
0.054487
0.0521901
0.0498062
0.0473617
0.0448756
0.0423608
0.0398265
0.0372788
0.034722
0.0321592
0.0295922
0.0270227
0.0244514
0.0218788
0.0193057
0.016732
0.0141581
0.011584
0.00900967
0.00643555
0.00386135
0.00128708
-0.0747138
-0.0800233
-0.0777152
-0.0688755
-0.0606571
-0.0513668
-0.0400042
-0.032785
-0.0286791
-0.0187548
0.00144791
0.023157
0.03992
0.0506874
0.0572116
0.0609305
0.0627642
0.0633045
0.0629392
0.0619329
0.0604708
0.0586839
0.0566655
0.054482
0.0521815
0.049798
0.0473557
0.0448719
0.0423591
0.0398261
0.0372792
0.0347229
0.0321602
0.0295934
0.0270237
0.0244523
0.0218796
0.0193063
0.0167325
0.0141585
0.0115843
0.00901001
0.00643575
0.00386143
0.00128713
-0.189515
-0.200633
-0.220886
-0.232031
-0.209932
-0.147109
-0.055215
0.0331225
0.0951215
0.125438
0.133438
0.129506
0.120651
0.110629
0.101114
0.0927125
0.0855336
0.0794599
0.0743131
0.069889
0.0660032
0.0625076
0.0592911
0.0562724
0.0533925
0.0506094
0.0478933
0.0452233
0.0425852
0.0399686
0.0373668
0.0347747
0.0321891
0.0296079
0.0270295
0.024453
0.0218777
0.0193031
0.0167289
0.014155
0.0115813
0.00900751
0.00643387
0.00386023
0.00128666
-0.190437
-0.203459
-0.237382
-0.264041
-0.248807
-0.187509
-0.0867287
0.0149554
0.0864595
0.120553
0.129217
0.12535
0.116775
0.107328
0.0985351
0.0908604
0.0842933
0.0786352
0.0737722
0.0695344
0.0657694
0.0623532
0.0591901
0.0562078
0.0533524
0.0505853
0.0478793
0.0452157
0.0425815
0.0399673
0.0373668
0.0347754
0.0321901
0.0296089
0.0270305
0.0244539
0.0218784
0.0193038
0.0167295
0.0141555
0.0115817
0.0090077
0.00643403
0.00386038
0.0012867
-0.20161
-0.229671
-0.284061
-0.335162
-0.334473
-0.267024
-0.139024
-0.0169958
0.0704365
0.110805
0.120261
0.116643
0.109084
0.100989
0.0934759
0.0868864
0.0812356
0.076451
0.0723264
0.0685814
0.0651446
0.0619475
0.0589297
0.0560416
0.0532465
0.0505182
0.0478373
0.0451899
0.0425661
0.0399585
0.037362
0.0347731
0.0321893
0.0296089
0.0270309
0.0244546
0.0218791
0.0193045
0.0167301
0.014156
0.0115821
0.009008
0.00643427
0.00386057
0.00128676
-0.197838
-0.233051
-0.305205
-0.369737
-0.38013
-0.310824
-0.179157
-0.0495006
0.0437465
0.0879956
0.10102
0.101257
0.0973518
0.0923938
0.087403
0.0828421
0.0786812
0.0747945
0.0709901
0.0675878
0.0644363
0.0614533
0.0585874
0.0558059
0.0530856
0.0504092
0.0477643
0.0451418
0.0425348
0.0399386
0.0373496
0.0347656
0.032185
0.0296066
0.0270299
0.0244542
0.0218792
0.0193049
0.0167305
0.0141564
0.0115825
0.00900826
0.00643447
0.00386072
0.00128682
-0.17635
-0.21674
-0.291704
-0.352947
-0.363859
-0.294718
-0.172779
-0.061109
0.0142896
0.0483131
0.0620659
0.0713546
0.0777072
0.0796775
0.0782668
0.0760986
0.0736248
0.0710574
0.0685676
0.0659675
0.063338
0.0607056
0.0580802
0.055464
0.0528567
0.0502568
0.0476637
0.0450757
0.0424918
0.0399108
0.037332
0.0347546
0.0321783
0.0296027
0.0270277
0.0244533
0.0218789
0.0193049
0.0167307
0.0141567
0.0115828
0.0090085
0.00643466
0.00386085
0.00128687
)
;

boundaryField
{
    inlet
    {
        type            zeroGradient;
    }
    outlet
    {
        type            fixedValue;
        value           uniform 0;
    }
    upperWall
    {
        type            zeroGradient;
    }
    lowerWall
    {
        type            zeroGradient;
    }
    frontAndBack
    {
        type            empty;
    }
}


// ************************************************************************* //
