/*--------------------------------*- C++ -*----------------------------------*\
  =========                 |
  \\      /  F ield         | OpenFOAM: The Open Source CFD Toolbox
   \\    /   O peration     | Website:  https://openfoam.org
    \\  /    A nd           | Version:  10
     \\/     M anipulation  |
\*---------------------------------------------------------------------------*/
FoamFile
{
    format      ascii;
    class       surfaceScalarField;
    location    "1.25";
    object      phi;
}
// * * * * * * * * * * * * * * * * * * * * * * * * * * * * * * * * * * * * * //

dimensions      [0 3 -1 0 0 0 0];

internalField   nonuniform List<scalar> 
890
(
0.00982387
0.000176128
0.00963596
0.000187915
0.009357
0.000278957
0.00931479
4.22046e-05
4.67253e-05
0.00926807
0.010139
3.71584e-05
0.0102128
0.000114129
0.0105344
-4.2682e-05
0.0105747
1.91198e-06
-0.000267471
0.0108889
0.010068
-3.08453e-05
0.0102537
-7.16087e-05
0.0104016
-0.000190553
0.0105799
-0.000176352
-0.000313024
0.0106254
0.0101041
-0.000134949
0.0102271
-0.000194597
0.0103023
-0.000265763
0.0104304
-0.0003044
-0.00031933
0.0104367
0.00986505
0.00967045
0.00940469
0.00910029
0.00878096
0.0101269
4.09605e-05
-0.000899827
0.010613
-0.00070844
0.000222418
0.0109845
-0.00197242
0.0016009
0.0111248
-0.00330619
0.00316591
0.0105335
-0.0038198
0.0044111
0.00925685
-0.00356803
0.00484464
0.00809333
-0.00303824
0.00420176
0.00745355
-0.00223859
0.00287836
0.00706564
-0.00129316
0.00168108
0.00668169
-0.000584245
0.000968186
0.0062971
-0.000230792
0.000615384
0.00598258
-0.000107366
0.000421883
0.00576086
-7.51693e-05
0.000296891
0.00561882
-6.44421e-05
0.000206489
0.00553302
-5.44082e-05
0.000140205
0.00548309
-4.30241e-05
9.29512e-05
0.00545478
-3.19925e-05
6.02995e-05
0.00543907
-2.26012e-05
3.83159e-05
0.00543047
-1.52502e-05
2.38522e-05
0.00542574
-9.81521e-06
1.45397e-05
0.00542309
-5.98208e-06
8.63521e-06
0.00542157
-3.40152e-06
4.9235e-06
0.00542068
-1.74271e-06
2.62644e-06
0.00542017
-7.20255e-07
1.23674e-06
0.00541986
-1.15888e-07
4.21848e-07
0.00541967
2.08986e-07
-1.98884e-08
0.00541956
3.73512e-07
-2.64936e-07
0.0054195
4.29419e-07
-3.6919e-07
0.00541947
4.24369e-07
-3.91642e-07
0.00541945
3.88336e-07
-3.71211e-07
0.00541945
3.39037e-07
-3.31116e-07
0.00541944
2.87011e-07
-2.84279e-07
0.00541944
2.3761e-07
-2.37697e-07
0.00541945
1.93101e-07
-1.94873e-07
0.00541945
1.5457e-07
-1.56963e-07
0.00541945
1.2209e-07
-1.24668e-07
0.00541945
9.50775e-08
-9.75468e-08
0.00541946
7.33626e-08
-7.54302e-08
0.00541946
5.60012e-08
-5.78775e-08
0.00541946
4.1461e-08
-4.26804e-08
0.00541946
3.14058e-08
-3.22489e-08
0.00541946
2.17305e-08
-2.26128e-08
0.00541946
1.27671e-08
-1.32245e-08
0.00541946
9.55029e-09
-9.89242e-09
-1.5221e-09
8.40587e-10
0.011367
-0.000437116
0.0112935
-0.000635019
0.0107275
-0.00140641
0.00977563
-0.00235429
0.00829593
-0.0023401
0.00644092
-0.00171302
0.00502928
-0.00162659
0.00449456
-0.00170387
0.00462136
-0.00141996
0.00494681
-0.000909698
0.00520973
-0.000493703
0.00535913
-0.000256771
0.00542675
-0.000142788
0.00545035
-8.80389e-05
0.00545393
-5.79865e-05
0.0054498
-3.88992e-05
0.00544344
-2.56329e-05
0.00543713
-1.62856e-05
0.00543173
-9.85361e-06
0.00542749
-5.58117e-06
0.00542437
-2.85885e-06
0.00542219
-1.22153e-06
0.00542074
-2.93559e-07
0.00541982
2.02777e-07
0.00541922
4.79536e-07
0.00541885
5.86582e-07
0.00541862
5.99214e-07
0.00541849
5.59632e-07
0.00541842
4.95707e-07
0.00541838
4.24151e-07
0.00541837
3.54234e-07
0.00541836
2.90404e-07
0.00541837
2.34431e-07
0.00541837
1.86394e-07
0.00541838
1.4656e-07
0.00541839
1.13869e-07
0.0054184
8.78251e-08
0.0054184
6.75039e-08
0.00541841
5.10232e-08
0.00541841
3.84252e-08
0.00541841
2.87543e-08
0.00541842
1.93968e-08
0.00541842
1.17381e-08
0.00541842
8.26887e-09
-2.2904e-09
0.0107335
-0.000545138
0.010844
-0.000745614
0.0105655
-0.00112782
0.009856
-0.00164483
0.00933105
-0.00181515
0.00913399
-0.00151597
0.00864566
-0.00113826
0.00781158
-0.00086978
0.00697787
-0.000586257
0.00638653
-0.000318354
0.00603021
-0.000137386
0.00581829
-4.48536e-05
0.00568367
-8.16589e-06
0.00559182
3.80892e-06
0.00552691
6.92966e-06
0.00548249
5.51133e-06
0.00545293
3.93652e-06
0.00543372
2.92202e-06
0.0054215
2.36634e-06
0.00541386
2.06005e-06
0.00540913
1.86432e-06
0.00540621
1.70401e-06
0.00540438
1.5338e-06
0.00540324
1.34749e-06
0.00540255
1.16954e-06
0.00540214
9.95976e-07
0.0054019
8.31456e-07
0.00540178
6.82759e-07
0.00540172
5.53238e-07
0.0054017
4.43427e-07
0.00540171
3.52185e-07
0.00540172
2.77123e-07
0.00540174
2.16368e-07
0.00540176
1.66845e-07
0.00540178
1.28549e-07
0.00540179
9.74593e-08
0.0054018
7.44812e-08
0.00540182
5.67694e-08
0.00540182
4.15773e-08
0.00540183
3.30268e-08
0.00540184
2.30437e-08
0.00540184
1.4799e-08
0.00540184
1.09551e-08
0.00540184
5.93891e-09
-3.09298e-09
0.010307
-0.000415438
0.0101743
-0.000612997
0.00984365
-0.000797131
0.00908526
-0.000886441
0.00818185
-0.000911735
0.00749405
-0.000828167
0.00696531
-0.000609518
0.00640258
-0.000307052
0.00588738
-7.10598e-05
0.00554177
2.72577e-05
0.00536288
4.15057e-05
0.00528235
3.56784e-05
0.00524715
2.70312e-05
0.00523101
1.99482e-05
0.00522319
1.47443e-05
0.00521774
1.09667e-05
0.00521331
8.3681e-06
0.00520966
6.56923e-06
0.00520676
5.2621e-06
0.00520457
4.25391e-06
0.005203
3.43792e-06
0.00520195
2.75226e-06
0.00520131
2.17308e-06
0.00520096
1.69696e-06
0.00520081
1.31974e-06
0.00520078
1.02247e-06
0.00520083
7.88857e-07
0.0052009
6.06415e-07
0.00520099
4.64906e-07
0.00520108
3.55563e-07
0.00520116
2.71281e-07
0.00520123
2.05867e-07
0.00520129
1.55755e-07
0.00520134
1.1629e-07
0.00520138
8.77086e-08
0.00520142
6.43756e-08
0.00520144
4.90592e-08
0.00520146
3.71665e-08
0.00520148
2.58353e-08
0.00520149
2.30956e-08
0.0052015
1.35439e-08
0.0052015
8.49126e-09
0.0052015
9.06667e-09
0.00520151
2.44244e-09
-3.5076e-09
0.00836552
0.00775253
0.00695539
0.00606895
0.00515722
0.00432905
0.00371953
0.00341248
0.00334142
0.00336868
0.00341018
0.00344586
0.00347289
0.00349284
0.00350759
0.00351855
0.00352692
0.00353349
0.00353875
0.00354301
0.00354645
0.0035492
0.00355137
0.00355307
0.00355439
0.00355541
0.0035562
0.0035568
0.00355727
0.00355763
0.0035579
0.0035581
0.00355826
0.00355837
0.00355846
0.00355853
0.00355858
0.00355861
0.00355864
0.00355866
0.00355868
0.00355868
0.00355869
0.0035587
-0.000873845
0.000873845
-0.00167454
0.000800692
-0.00214473
0.000470189
-0.0020231
-0.000121629
-0.00132022
-0.000702881
-0.000294184
-0.00102603
0.000769642
-0.00106383
0.00168654
-0.000916895
0.00238435
-0.000697814
0.00286827
-0.000483923
0.00317953
-0.000311258
0.00336723
-0.000187701
0.00347403
-0.000106793
0.00353129
-5.72648e-05
0.00355978
-2.8494e-05
0.00357233
-1.25464e-05
0.00357649
-4.15841e-06
0.00357661
-1.15731e-07
0.00357481
1.7995e-06
0.00357237
2.43998e-06
0.0035699
2.46509e-06
0.00356768
2.22501e-06
0.00356578
1.89271e-06
0.00356423
1.55155e-06
0.00356299
1.24298e-06
0.003562
9.83456e-07
0.00356123
7.71817e-07
0.00356063
6.01448e-07
0.00356017
4.64727e-07
0.00355981
3.55574e-07
0.00355954
2.69502e-07
0.00355934
2.03383e-07
0.00355919
1.52966e-07
0.00355907
1.16281e-07
0.00355898
8.75367e-08
0.00355891
6.75349e-08
0.00355886
5.00205e-08
0.00355883
3.67124e-08
0.0035588
2.8695e-08
0.00355878
1.66572e-08
0.00355877
1.46792e-08
0.00355876
1.14379e-08
0.00355875
3.25639e-09
0.00355875
6.3527e-09
4.61511e-09
-0.000673333
0.00154718
-0.00178329
0.00191065
-0.00224068
0.000927577
-0.00194497
-0.000417342
-0.0010342
-0.00161365
0.000226244
-0.00228647
0.00150602
-0.0023436
0.0026002
-0.00201108
0.00344441
-0.00154202
0.00405112
-0.00109064
0.00446514
-0.000725272
0.00473745
-0.000460018
0.00491231
-0.000281652
0.00502293
-0.000167887
0.00509222
-9.77813e-05
0.00513532
-5.56413e-05
0.00516197
-3.08147e-05
0.0051783
-1.64408e-05
0.0051883
-8.20817e-06
0.00519436
-3.6109e-06
0.00519795
-1.12886e-06
0.00520004
1.37773e-07
0.0052012
7.26797e-07
0.00520182
9.37386e-07
0.0052021
9.5512e-07
0.0052022
8.87046e-07
0.00520219
7.79278e-07
0.00520214
6.59732e-07
0.00520206
5.43376e-07
0.00520197
4.37912e-07
0.0052019
3.47378e-07
0.00520183
2.73048e-07
0.00520177
2.13176e-07
0.00520172
1.66565e-07
0.00520167
1.28835e-07
0.00520164
1.00142e-07
0.00520162
7.58965e-08
0.0052016
5.66827e-08
0.00520158
4.3317e-08
0.00520157
2.8976e-08
0.00520156
2.25735e-08
0.00520156
1.72093e-08
0.00520155
8.08469e-09
0.00520155
8.26416e-09
3.51183e-09
-0.00108757
0.00263475
-0.00174091
0.00256399
-0.00166081
0.000847479
-0.0010315
-0.00104665
8.51997e-05
-0.00273035
0.00133919
-0.00354047
0.00248754
-0.00349195
0.00337101
-0.00289455
0.0040183
-0.00218931
0.00447964
-0.00155197
0.00479628
-0.00104191
0.0050062
-0.000669937
0.00514316
-0.000418614
0.00523245
-0.000257181
0.00529095
-0.000156274
0.00532941
-9.41034e-05
0.00535476
-5.61662e-05
0.00537146
-3.31402e-05
0.00538244
-1.91904e-05
0.00538962
-1.07912e-05
0.00539428
-5.7876e-06
0.00539727
-2.85453e-06
0.00539918
-1.17538e-06
0.00540037
-2.55576e-07
0.00540111
2.13598e-07
0.00540155
4.51272e-07
0.00540179
5.31533e-07
0.00540193
5.27257e-07
0.00540199
4.8009e-07
0.00540201
4.15558e-07
0.00540201
3.48265e-07
0.005402
2.85934e-07
0.00540198
2.31411e-07
0.00540196
1.85592e-07
0.00540194
1.46963e-07
0.00540193
1.15551e-07
0.00540191
8.91553e-08
0.0054019
6.77734e-08
0.00540189
5.15515e-08
0.00540189
3.68709e-08
0.00540188
2.77194e-08
0.00540188
2.03361e-08
0.00540187
1.14416e-08
0.00540187
9.45055e-09
1.57097e-09
-0.000445215
0.00307997
0.000312101
0.00180667
0.00121715
-5.75718e-05
0.00219094
-0.00202044
0.00322017
-0.00375959
0.00425032
-0.00457062
0.00494811
-0.00418973
0.00522368
-0.00317012
0.00526707
-0.0022327
0.00526546
-0.00155037
0.00528106
-0.00105751
0.00530706
-0.000695945
0.00533268
-0.000444229
0.00535394
-0.000278438
0.00537071
-0.000173045
0.00538377
-0.000107165
0.00539377
-6.61682e-05
0.00540124
-4.06097e-05
0.00540668
-2.46356e-05
0.00541056
-1.46711e-05
0.00541327
-8.49649e-06
0.00541513
-4.70886e-06
0.00541637
-2.42161e-06
0.00541719
-1.07273e-06
0.00541771
-3.02213e-07
0.00541805
1.11831e-07
0.00541825
3.23879e-07
0.00541838
4.05401e-07
0.00541844
4.12817e-07
0.00541848
3.81643e-07
0.00541849
3.34823e-07
0.00541849
2.84272e-07
0.00541849
2.35893e-07
0.00541848
1.92627e-07
0.00541847
1.54856e-07
0.00541847
1.22892e-07
0.00541846
9.57728e-08
0.00541845
7.35206e-08
0.00541845
5.60784e-08
0.00541844
4.0915e-08
0.00541844
3.07668e-08
0.00541844
2.21091e-08
0.00541844
1.29162e-08
0.00541844
1.00876e-08
2.41619e-10
0.00218014
0.00420923
0.00575256
0.00689803
0.00754954
0.00782356
0.00783559
0.00754382
0.0069922
0.00641002
0.0059679
0.00569384
0.0055465
0.00547455
0.00544171
0.0054275
0.00542163
0.00541934
0.00541855
0.00541842
0.00541856
0.00541877
0.00541898
0.00541914
0.00541926
0.00541935
0.00541941
0.00541945
0.00541947
0.00541948
0.00541948
0.00541948
0.00541948
0.00541948
0.00541948
0.00541948
0.00541947
0.00541947
0.00541947
0.00541947
0.00541947
0.00541947
0.00541947
0.00541947
)
;

boundaryField
{
    inlet
    {
        type            calculated;
        value           nonuniform List<scalar> 5(-0.01 -0.01 -0.01 -0.01 -0.01);
    }
    outlet
    {
        type            calculated;
        value           nonuniform List<scalar> 10(0.00541946 0.00541842 0.00540184 0.00520151 0.00355869 0.00355874 0.00520155 0.00540188 0.00541844 0.00541947);
    }
    upperWall
    {
        type            calculated;
        value           uniform 0;
    }
    lowerWall
    {
        type            calculated;
        value           uniform 0;
    }
    frontAndBack
    {
        type            empty;
        value           nonuniform List<scalar> 0();
    }
}


// ************************************************************************* //
