/*--------------------------------*- C++ -*----------------------------------*\
  =========                 |
  \\      /  F ield         | OpenFOAM: The Open Source CFD Toolbox
   \\    /   O peration     | Website:  https://openfoam.org
    \\  /    A nd           | Version:  10
     \\/     M anipulation  |
\*---------------------------------------------------------------------------*/
FoamFile
{
    format      ascii;
    class       volVectorField;
    location    "7.375";
    object      U;
}
// * * * * * * * * * * * * * * * * * * * * * * * * * * * * * * * * * * * * * //

dimensions      [0 1 -1 0 0 0 0];

internalField   nonuniform List<vector> 
475
(
(0.974268 0.0161343 0)
(0.975941 0.00629922 0)
(0.950213 0.0315249 0)
(0.954767 0.000934992 0)
(0.920034 0.0301335 0)
(0.998582 0.00861094 0)
(1.01401 0.014863 0)
(1.02538 0.0150977 0)
(1.04367 0.00853618 0)
(1.05566 0.00167746 0)
(1.00003 0.000251892 0)
(1.00961 -0.0030329 0)
(1.02431 -0.00471004 0)
(1.04122 -0.00946455 0)
(1.05631 -0.0146969 0)
(1.0004 -0.0100388 0)
(1.00967 -0.0196199 0)
(1.02326 -0.0219492 0)
(1.03503 -0.0233589 0)
(1.04474 -0.0257198 0)
(0.981241 -0.00976602 0)
(0.968492 -0.0190628 0)
(0.954315 -0.0218076 0)
(0.932478 -0.0224718 0)
(0.908175 -0.0227629 0)
(0.925748 -0.0168952 0)
(0.932983 -0.0361322 0)
(0.937717 -0.0482505 0)
(0.944036 -0.0568442 0)
(0.954264 -0.0654942 0)
(0.968563 -0.0766121 0)
(0.987892 -0.0922509 0)
(1.00895 -0.11205 0)
(1.03096 -0.135573 0)
(1.05126 -0.1619 0)
(1.06827 -0.188705 0)
(1.08041 -0.214609 0)
(1.08592 -0.236286 0)
(1.08427 -0.252019 0)
(1.07508 -0.258975 0)
(1.05808 -0.257956 0)
(1.03357 -0.249614 0)
(1.00335 -0.234951 0)
(0.971867 -0.214419 0)
(0.942437 -0.18785 0)
(0.913955 -0.156403 0)
(0.887692 -0.122182 0)
(0.8637 -0.0866633 0)
(0.841116 -0.0523427 0)
(0.821374 -0.0212418 0)
(0.806122 0.00609981 0)
(0.794938 0.0288001 0)
(0.786633 0.0467151 0)
(0.780697 0.0603348 0)
(0.777005 0.0701923 0)
(0.775305 0.0761652 0)
(0.774249 0.0781398 0)
(0.772199 0.0773024 0)
(0.76817 0.0747704 0)
(0.76213 0.0703381 0)
(0.755032 0.0634619 0)
(0.746609 0.0549919 0)
(0.737742 0.048035 0)
(0.726934 0.0433245 0)
(0.717524 0.0431788 0)
(0.706136 0.0419796 0)
(0.698813 0.0439314 0)
(0.687382 0.0384011 0)
(0.682881 0.0385565 0)
(0.671384 0.0281065 0)
(1.06849 -0.00904421 0)
(1.0778 -0.021826 0)
(1.0825 -0.0334254 0)
(1.08431 -0.0443095 0)
(1.08582 -0.0558379 0)
(1.08711 -0.0695484 0)
(1.0892 -0.0868468 0)
(1.08926 -0.107991 0)
(1.08812 -0.132371 0)
(1.08218 -0.158667 0)
(1.07243 -0.18483 0)
(1.05602 -0.208026 0)
(1.03382 -0.225161 0)
(1.00425 -0.233998 0)
(0.96898 -0.231212 0)
(0.926486 -0.224352 0)
(0.876474 -0.213226 0)
(0.822962 -0.19541 0)
(0.770414 -0.171158 0)
(0.722355 -0.143292 0)
(0.678694 -0.113561 0)
(0.641045 -0.0835464 0)
(0.608681 -0.0544036 0)
(0.581103 -0.0278907 0)
(0.558238 -0.00415817 0)
(0.54249 0.0167842 0)
(0.534237 0.0347008 0)
(0.531683 0.0487923 0)
(0.53345 0.0589124 0)
(0.538188 0.065892 0)
(0.544396 0.0707737 0)
(0.550557 0.0741726 0)
(0.556099 0.0762454 0)
(0.56116 0.0762035 0)
(0.566398 0.0732341 0)
(0.571719 0.0674026 0)
(0.576387 0.0602723 0)
(0.579864 0.0543941 0)
(0.582437 0.050351 0)
(0.584848 0.0495117 0)
(0.588738 0.0472202 0)
(0.592568 0.047392 0)
(0.600482 0.0403382 0)
(0.603989 0.0392878 0)
(0.61637 0.0270944 0)
(1.06854 -0.022445 0)
(1.0763 -0.0330049 0)
(1.08074 -0.0441039 0)
(1.08062 -0.0555267 0)
(1.07906 -0.0665435 0)
(1.07363 -0.0793683 0)
(1.06785 -0.0935691 0)
(1.05699 -0.111072 0)
(1.04482 -0.130505 0)
(1.02551 -0.151891 0)
(1.00287 -0.17319 0)
(0.973054 -0.190727 0)
(0.938265 -0.201922 0)
(0.893977 -0.198054 0)
(0.842184 -0.180991 0)
(0.773965 -0.168815 0)
(0.698572 -0.160808 0)
(0.624837 -0.149646 0)
(0.547972 -0.128416 0)
(0.475566 -0.100191 0)
(0.415009 -0.0703123 0)
(0.365799 -0.0420452 0)
(0.327297 -0.0174129 0)
(0.299303 0.00241357 0)
(0.279759 0.0189544 0)
(0.268413 0.0330248 0)
(0.265261 0.044153 0)
(0.26901 0.0524044 0)
(0.278083 0.0583009 0)
(0.291124 0.0623956 0)
(0.30713 0.0650921 0)
(0.325305 0.0663283 0)
(0.345204 0.0658509 0)
(0.366183 0.0633533 0)
(0.387497 0.0590207 0)
(0.407978 0.0533704 0)
(0.426757 0.0477197 0)
(0.443578 0.0431161 0)
(0.459293 0.0399819 0)
(0.474448 0.0380825 0)
(0.491059 0.0354794 0)
(0.506249 0.033318 0)
(0.525685 0.0272158 0)
(0.536554 0.0245559 0)
(0.559264 0.015039 0)
(1.04983 -0.0304023 0)
(1.05104 -0.0362534 0)
(1.04799 -0.0430637 0)
(1.03937 -0.0498491 0)
(1.02755 -0.0569397 0)
(1.00855 -0.0648087 0)
(0.987631 -0.0737824 0)
(0.956321 -0.0851066 0)
(0.923241 -0.0974181 0)
(0.875611 -0.112717 0)
(0.825257 -0.12668 0)
(0.760815 -0.140329 0)
(0.688369 -0.147412 0)
(0.614745 -0.133403 0)
(0.529835 -0.109786 0)
(0.402256 -0.0811212 0)
(0.263588 -0.0425963 0)
(0.159637 -0.0132523 0)
(0.0879097 -0.00708824 0)
(0.0432606 -0.0083673 0)
(0.0196458 -0.00672878 0)
(0.00765038 -0.000324144 0)
(0.00324438 0.0078875 0)
(0.00597747 0.0159894 0)
(0.0154173 0.0229147 0)
(0.0297268 0.0280689 0)
(0.0481171 0.0315628 0)
(0.0698332 0.0337891 0)
(0.094177 0.0351513 0)
(0.120469 0.0359061 0)
(0.148169 0.0362645 0)
(0.176758 0.0360918 0)
(0.205786 0.0351884 0)
(0.234555 0.0333709 0)
(0.262249 0.0307192 0)
(0.287979 0.0274576 0)
(0.311397 0.0241522 0)
(0.332673 0.0211513 0)
(0.352361 0.0187151 0)
(0.371134 0.0164957 0)
(0.389048 0.0142655 0)
(0.405726 0.0117533 0)
(0.421306 0.00879882 0)
(0.432263 0.00658484 0)
(0.446121 0.00316766 0)
(0.878838 -0.0245694 0)
(0.848954 -0.0259045 0)
(0.813823 -0.0287884 0)
(0.776368 -0.0301692 0)
(0.73292 -0.0336679 0)
(0.684628 -0.0353413 0)
(0.63128 -0.0402186 0)
(0.568356 -0.0436986 0)
(0.502298 -0.0504756 0)
(0.417234 -0.0574431 0)
(0.333392 -0.0625029 0)
(0.220396 -0.0785944 0)
(0.0994463 -0.0519726 0)
(0.0169849 0.00658355 0)
(-0.0266721 0.0484879 0)
(-0.0402317 0.0684264 0)
(-0.0369986 0.0500921 0)
(-0.0327522 0.012171 0)
(-0.0387209 -0.0186609 0)
(-0.0572397 -0.0295736 0)
(-0.0784875 -0.027628 0)
(-0.0936623 -0.0206946 0)
(-0.10072 -0.0133076 0)
(-0.0999487 -0.00646487 0)
(-0.0926516 -0.00130737 0)
(-0.0804376 0.0021736 0)
(-0.0646861 0.00450895 0)
(-0.0465169 0.00602982 0)
(-0.0267602 0.00695844 0)
(-0.00592314 0.00744222 0)
(0.0155539 0.00765854 0)
(0.0371747 0.00760028 0)
(0.0585349 0.00725903 0)
(0.0790749 0.00661571 0)
(0.0981973 0.00570433 0)
(0.115361 0.00463051 0)
(0.130375 0.00356387 0)
(0.143309 0.00263507 0)
(0.154516 0.00192307 0)
(0.164257 0.00142329 0)
(0.172692 0.00107881 0)
(0.179815 0.000858485 0)
(0.185421 0.000735913 0)
(0.18968 0.000620328 0)
(0.193202 0.000418019 0)
(0.00393162 -0.0275303 0)
(0.00580393 -0.0276292 0)
(-0.003481 -0.0147746 0)
(-0.0301126 0.0094884 0)
(-0.0803729 0.0280717 0)
(-0.139204 0.0335356 0)
(-0.194836 0.0326337 0)
(-0.243642 0.0291144 0)
(-0.281765 0.023959 0)
(-0.306731 0.0177716 0)
(-0.317189 0.0106234 0)
(-0.313894 0.00259168 0)
(-0.296411 -0.00557912 0)
(-0.265711 -0.0131551 0)
(-0.223489 -0.0193634 0)
(-0.172183 -0.0238041 0)
(-0.115272 -0.0260473 0)
(-0.055355 -0.0265881 0)
(0.0050115 -0.0255951 0)
(0.0630103 -0.0233854 0)
(0.1159 -0.0199897 0)
(0.161448 -0.0157131 0)
(0.19812 -0.0110065 0)
(0.225092 -0.00631481 0)
(0.242461 -0.00189347 0)
(0.250779 0.00166882 0)
(0.25168 0.00404735 0)
(0.246644 0.00631926 0)
(0.236515 0.00946615 0)
(0.2222 0.0127706 0)
(0.205103 0.0144105 0)
(0.187248 0.0130677 0)
(0.170883 0.00921768 0)
(0.157526 0.00414996 0)
(0.147786 -0.000621427 0)
(0.141705 -0.00398306 0)
(0.138777 -0.00549627 0)
(0.138416 -0.00546132 0)
(0.13968 -0.00432404 0)
(0.142084 -0.00302399 0)
(0.145064 -0.0020456 0)
(0.148757 -0.00160976 0)
(0.15313 -0.00140137 0)
(0.157146 -0.00145787 0)
(0.16416 -0.00110181 0)
(-0.00261004 0.0198183 0)
(-0.0265585 0.0368196 0)
(-0.0736153 0.0547773 0)
(-0.113895 0.0716055 0)
(-0.152689 0.079822 0)
(-0.181889 0.0776551 0)
(-0.203442 0.0683355 0)
(-0.21681 0.0547017 0)
(-0.220738 0.0378938 0)
(-0.213536 0.0182191 0)
(-0.195858 -0.00277807 0)
(-0.166755 -0.0241978 0)
(-0.126891 -0.0449212 0)
(-0.0764213 -0.0636365 0)
(-0.0176946 -0.0787726 0)
(0.0483206 -0.0892332 0)
(0.117656 -0.0946259 0)
(0.187452 -0.095648 0)
(0.255162 -0.092733 0)
(0.318914 -0.0861389 0)
(0.376987 -0.0762277 0)
(0.42746 -0.0637512 0)
(0.469115 -0.0496596 0)
(0.501256 -0.0351108 0)
(0.524081 -0.0211327 0)
(0.538044 -0.008798 0)
(0.543982 0.00138368 0)
(0.542517 0.00974179 0)
(0.53477 0.015943 0)
(0.523226 0.0198262 0)
(0.510681 0.0216947 0)
(0.499116 0.0215877 0)
(0.488373 0.0200714 0)
(0.477191 0.0180073 0)
(0.465721 0.0156193 0)
(0.455152 0.0124552 0)
(0.445279 0.00858461 0)
(0.436065 0.00443367 0)
(0.426988 0.000838675 0)
(0.418444 -0.00243368 0)
(0.411583 -0.00464996 0)
(0.406923 -0.00703435 0)
(0.406842 -0.00756643 0)
(0.406629 -0.00903704 0)
(0.413827 -0.00724253 0)
(-0.0339641 -0.00591757 0)
(-0.0651974 0.0381459 0)
(-0.0706605 0.0614265 0)
(-0.0695346 0.0784765 0)
(-0.0598902 0.0844912 0)
(-0.0443858 0.0790766 0)
(-0.0253689 0.06443 0)
(-0.00250623 0.0448106 0)
(0.0234652 0.0211626 0)
(0.0569599 -0.00519622 0)
(0.0978022 -0.0343502 0)
(0.147075 -0.0653917 0)
(0.201408 -0.0953329 0)
(0.261054 -0.122004 0)
(0.32398 -0.143348 0)
(0.387905 -0.157378 0)
(0.450962 -0.164185 0)
(0.511509 -0.164288 0)
(0.567819 -0.158355 0)
(0.618982 -0.14644 0)
(0.663918 -0.129252 0)
(0.701597 -0.108151 0)
(0.731087 -0.0848677 0)
(0.752382 -0.0611093 0)
(0.766079 -0.0380472 0)
(0.772547 -0.0173313 0)
(0.772632 -0.00023677 0)
(0.767303 0.0139081 0)
(0.757366 0.0256165 0)
(0.744223 0.0334704 0)
(0.729912 0.0365402 0)
(0.715324 0.0363509 0)
(0.699757 0.0342102 0)
(0.683532 0.0300294 0)
(0.667721 0.0240236 0)
(0.654181 0.0173025 0)
(0.644045 0.0126967 0)
(0.637095 0.0111092 0)
(0.630319 0.0122049 0)
(0.62231 0.0118668 0)
(0.611383 0.0100075 0)
(0.599795 0.00392512 0)
(0.587414 -0.00100122 0)
(0.57911 -0.00712295 0)
(0.570232 -0.00901836 0)
(-0.0276861 0.139721 0)
(-0.0202813 0.0888269 0)
(-0.00213988 0.0765421 0)
(0.0312859 0.0718004 0)
(0.0741527 0.0652879 0)
(0.122947 0.0542414 0)
(0.17584 0.036945 0)
(0.229264 0.013401 0)
(0.284073 -0.0170416 0)
(0.342248 -0.0512094 0)
(0.401904 -0.0865557 0)
(0.463141 -0.122289 0)
(0.524302 -0.155744 0)
(0.584849 -0.18412 0)
(0.643362 -0.205643 0)
(0.697695 -0.218717 0)
(0.746809 -0.223017 0)
(0.790102 -0.219647 0)
(0.827365 -0.208565 0)
(0.859025 -0.189832 0)
(0.884782 -0.165188 0)
(0.90446 -0.135977 0)
(0.91791 -0.104219 0)
(0.925445 -0.0726188 0)
(0.92785 -0.0428814 0)
(0.925825 -0.0162971 0)
(0.919696 0.00655223 0)
(0.910021 0.0246241 0)
(0.897714 0.0383281 0)
(0.883666 0.0480377 0)
(0.868215 0.0531579 0)
(0.851539 0.0535828 0)
(0.834458 0.0512123 0)
(0.818103 0.0473423 0)
(0.801731 0.0419355 0)
(0.785361 0.0342476 0)
(0.768963 0.0261532 0)
(0.755245 0.0196405 0)
(0.743138 0.0175775 0)
(0.734982 0.0180257 0)
(0.723466 0.0191453 0)
(0.71522 0.0173932 0)
(0.697225 0.0130512 0)
(0.689678 0.00814621 0)
(0.665852 0.00165756 0)
(0.083837 0.00263438 0)
(0.117738 -0.00558152 0)
(0.203372 -0.00759671 0)
(0.271181 -0.0120849 0)
(0.337315 -0.0195338 0)
(0.40481 -0.0315163 0)
(0.474392 -0.0488117 0)
(0.541557 -0.0707356 0)
(0.607494 -0.0973099 0)
(0.671751 -0.128137 0)
(0.732928 -0.160002 0)
(0.790251 -0.191738 0)
(0.841476 -0.220505 0)
(0.885801 -0.243023 0)
(0.922531 -0.257754 0)
(0.950704 -0.263947 0)
(0.970274 -0.26124 0)
(0.9822 -0.251322 0)
(0.988576 -0.23485 0)
(0.991241 -0.210844 0)
(0.990052 -0.180406 0)
(0.9858 -0.145722 0)
(0.978956 -0.109018 0)
(0.970312 -0.072882 0)
(0.96043 -0.0397214 0)
(0.949852 -0.0102303 0)
(0.939259 0.0147742 0)
(0.928171 0.0345175 0)
(0.917011 0.0491669 0)
(0.905803 0.0592478 0)
(0.894264 0.0652282 0)
(0.882237 0.0674865 0)
(0.869178 0.0672466 0)
(0.855007 0.0649752 0)
(0.839857 0.0603563 0)
(0.824881 0.0527748 0)
(0.809454 0.0435047 0)
(0.795977 0.0354745 0)
(0.781924 0.0307787 0)
(0.771921 0.030151 0)
(0.757693 0.029679 0)
(0.749935 0.030063 0)
(0.73083 0.0254417 0)
(0.725073 0.0236798 0)
(0.699431 0.0158259 0)
)
;

boundaryField
{
    inlet
    {
        type            fixedValue;
        value           uniform (1 0 0);
    }
    outlet
    {
        type            zeroGradient;
    }
    upperWall
    {
        type            noSlip;
    }
    lowerWall
    {
        type            noSlip;
    }
    frontAndBack
    {
        type            empty;
    }
}


// ************************************************************************* //
