/*--------------------------------*- C++ -*----------------------------------*\
  =========                 |
  \\      /  F ield         | OpenFOAM: The Open Source CFD Toolbox
   \\    /   O peration     | Website:  https://openfoam.org
    \\  /    A nd           | Version:  10
     \\/     M anipulation  |
\*---------------------------------------------------------------------------*/
FoamFile
{
    format      ascii;
    class       surfaceScalarField;
    location    "7.925";
    object      phi;
}
// * * * * * * * * * * * * * * * * * * * * * * * * * * * * * * * * * * * * * //

dimensions      [0 3 -1 0 0 0 0];

internalField   nonuniform List<scalar> 
760
(
-1.19569e-05
1.19569e-05
-3.8567e-05
2.66102e-05
-7.05305e-05
3.19635e-05
-0.000104097
3.35663e-05
-0.000138066
3.39691e-05
-0.000172058
3.39918e-05
-0.000205697
3.36398e-05
-0.00023832
3.26222e-05
-0.000268843
3.05232e-05
-0.000295682
2.68392e-05
-0.00031669
2.10079e-05
-0.000329157
1.24673e-05
-0.000329946
7.88657e-07
-0.000315777
-1.41685e-05
-0.000284083
-3.16941e-05
-0.00023409
-4.9993e-05
-0.000168504
-6.55865e-05
-9.53998e-05
-7.3104e-05
-2.99146e-05
-6.54852e-05
-2.99146e-05
-2.84832e-05
4.04401e-05
-8.04021e-05
7.85291e-05
-0.000140884
9.24451e-05
-0.000203732
9.6415e-05
-0.000266545
9.67811e-05
-0.000328168
9.5615e-05
-0.000387549
9.30212e-05
-0.00044329
8.83632e-05
-0.000493447
8.06803e-05
-0.000535407
6.87993e-05
-0.000565822
5.1423e-05
-0.000580579
2.72236e-05
-0.000575475
-4.315e-06
-0.00054569
-4.39536e-05
-0.000487902
-8.94824e-05
-0.000401438
-0.000136457
-0.000290733
-0.000176291
-0.00016838
-0.000195457
-5.74926e-05
-0.000176372
-8.74072e-05
-3.59489e-05
7.63889e-05
-9.95769e-05
0.000142157
-0.000172886
0.000165754
-0.000248501
0.000172031
-0.000323604
0.000171884
-0.000396831
0.000168841
-0.00046697
0.000163161
-0.000532486
0.000153879
-0.000591289
0.000139483
-0.000640572
0.000118083
-0.000676699
8.75491e-05
-0.000695279
4.58037e-05
-0.00069085
-8.74368e-06
-0.000657642
-7.71616e-05
-0.000590838
-0.000156287
-0.000488414
-0.00023888
-0.00035462
-0.000310085
-0.000204666
-0.000345412
-6.8484e-05
-0.000312554
-0.000155891
-3.88016e-05
0.000115191
-0.000107537
0.000210893
-0.000186494
0.000244711
-0.000267802
0.000253339
-0.000348632
0.000252713
-0.000427752
0.000247962
-0.000504141
0.00023955
-0.000576487
0.000226225
-0.000642934
0.00020593
-0.000700838
0.000175988
-0.000746501
0.000133211
-0.000774936
7.42388e-05
-0.000780066
-3.61357e-06
-0.000753552
-0.000103676
-0.000687503
-0.000222336
-0.000576166
-0.000350217
-0.000421325
-0.000464927
-0.000241076
-0.000525661
-7.6347e-05
-0.000477283
-0.000232238
-3.96783e-05
0.000154869
-0.000110746
0.000281961
-0.000192562
0.000326527
-0.000277045
0.000337822
-0.000361532
0.0003372
-0.00044512
0.00033155
-0.000527209
0.000321639
-0.000606978
0.000305995
-0.000683092
0.000282043
-0.00075336
0.000246255
-0.000814286
0.000194138
-0.000860467
0.00012042
-0.000884138
2.00577e-05
-0.000874596
-0.000113218
-0.000818323
-0.000278608
-0.000702654
-0.000465886
-0.000522773
-0.000644808
-0.000297086
-0.000751348
-8.69087e-05
-0.00068746
-0.000319147
-3.98325e-05
0.000194701
-0.000112228
0.000354356
-0.000195973
0.000410271
-0.000282858
0.000424707
-0.00037047
0.000424811
-0.000458362
0.000419442
-0.000546545
0.000409821
-0.000634949
0.000394399
-0.000723101
0.000370195
-0.000809697
0.000332852
-0.000891953
0.000276393
-0.00096462
0.000193087
-0.00101857
7.40077e-05
-0.00104047
-9.13178e-05
-0.00100938
-0.000309695
-0.000900826
-0.000574444
-0.000694062
-0.000851571
-0.000397361
-0.00104805
-0.000107371
-0.00097745
-0.000426518
-3.96963e-05
0.000234398
-0.000113051
0.000427711
-0.000198358
0.000495579
-0.000287274
0.000513623
-0.00037766
0.000515198
-0.000469626
0.000511409
-0.000563967
0.000504162
-0.00066165
0.000492081
-0.00076351
0.000472056
-0.000869798
0.00043914
-0.000979385
0.00038598
-0.00108844
0.000302145
-0.00118827
0.00017383
-0.0012652
-1.43786e-05
-0.00128962
-0.000285277
-0.0012197
-0.000644368
-0.000998532
-0.00107274
-0.000594938
-0.00145164
-0.000159695
-0.00141269
-0.000586213
-3.93673e-05
0.000273765
-0.000113466
0.000501809
-0.000200012
0.000582125
-0.000290442
0.000604053
-0.000382887
0.000607643
-0.000478059
0.000606582
-0.000577681
0.000603783
-0.000684042
0.000598442
-0.000799806
0.00058782
-0.000927699
0.000567033
-0.00106983
0.000528114
-0.0012264
0.000458707
-0.00139338
0.000340812
-0.00155822
0.000150467
-0.00169495
-0.000148548
-0.00173052
-0.000608795
-0.00153268
-0.00127058
-0.000982031
-0.0020023
-0.000298383
-0.00209634
-0.000884596
-3.88956e-05
0.000312661
-0.000113567
0.000576481
-0.000200919
0.000669477
-0.000292032
0.000695165
-0.000385247
0.000700857
-0.000481868
0.000703203
-0.000584583
0.000706498
-0.000697164
0.000711023
-0.000824553
0.000715209
-0.000972926
0.000715406
-0.00114953
0.000704713
-0.00136221
0.000671396
-0.00161852
0.000597122
-0.00192026
0.000452201
-0.00224473
0.00017592
-0.0024741
-0.000379423
-0.00233945
-0.00140522
-0.00162212
-0.00271963
-0.000609292
-0.00310917
-0.00149389
-3.84388e-05
0.000351099
-0.000113645
0.000651687
-0.0002013
0.000757132
-0.00029194
0.000785804
-0.000384014
0.000792932
-0.000479327
0.000798516
-0.000581427
0.000808598
-0.000695491
0.000825086
-0.000828789
0.000848507
-0.000991487
0.000878104
-0.00119785
0.000911081
-0.00146788
0.000941419
-0.0018281
0.000957347
-0.0023019
0.000925995
-0.00285167
0.000725695
-0.00327876
4.76635e-05
-0.00320481
-0.00147917
-0.00241189
-0.00351256
-0.00115447
-0.00436659
-0.00264836
-3.83736e-05
0.000389473
-0.000114428
0.000727742
-0.000201948
0.000844652
-0.000290739
0.000874595
-0.000379218
0.000881411
-0.000469516
0.000888815
-0.000565734
0.000904816
-0.000673976
0.000933327
-0.00080324
0.000977771
-0.000967054
0.00104192
-0.00118626
0.00113029
-0.00149285
0.00124801
-0.00192933
0.00139382
-0.002523
0.00151967
-0.00319847
0.00140117
-0.00367995
0.000529147
-0.00365448
-0.00150464
-0.00302554
-0.00414149
-0.00177891
-0.00561322
-0.00442727
-3.94807e-05
0.000428954
-0.000117401
0.000805662
-0.000204575
0.000931825
-0.000290013
0.000960033
-0.000372098
0.000963496
-0.00045307
0.000969787
-0.000537075
0.000988821
-0.000630208
0.00102646
-0.000741644
0.00108921
-0.000885597
0.00118587
-0.00108439
0.00132908
-0.00137128
0.00153489
-0.00178458
0.00180713
-0.00232531
0.0020604
-0.00289243
0.00196829
-0.00326559
0.00090231
-0.003303
-0.00146724
-0.0029699
-0.00447459
-0.00194538
-0.00663774
-0.00637265
-4.28446e-05
0.000471798
-0.000124631
0.000887449
-0.000211849
0.00101904
-0.000292765
0.00104095
-0.000365665
0.0010364
-0.000432735
0.00103686
-0.000497686
0.00105377
-0.000565188
0.00109396
-0.00064198
0.001166
-0.000738155
0.00128205
-0.000868673
0.0014596
-0.0010519
0.00171813
-0.00130387
0.00205909
-0.00160343
0.00235995
-0.00189225
0.00225711
-0.00207842
0.00108848
-0.0021844
-0.00136125
-0.00218509
-0.0044739
-0.00159537
-0.00722746
-0.00796802
-5.20656e-05
0.000523864
-0.000141759
0.000977142
-0.000228778
0.00110606
-0.000302488
0.00111466
-0.000363017
0.00109693
-0.000412686
0.00108653
-0.000453534
0.00109462
-0.000487897
0.00112833
-0.000518313
0.00119642
-0.000547544
0.00131128
-0.000578444
0.0014905
-0.000608384
0.00174807
-0.000632968
0.00208368
-0.000628327
0.00235531
-0.000618922
0.00224771
-0.000636661
0.00110622
-0.000791803
-0.00120611
-0.00114682
-0.00411889
-0.00107423
-0.00730005
-0.00904225
-6.37752e-05
0.000587639
-0.000165156
0.00107852
-0.000256529
0.00119744
-0.000327676
0.00118581
-0.000376487
0.00114574
-0.00040617
0.00111621
-0.000418913
0.00110736
-0.000415205
0.00112462
-0.000393554
0.00117476
-0.000349537
0.00126726
-0.000275077
0.00141604
-0.000152494
0.00162548
4.02125e-05
0.00189097
0.000292297
0.00210323
0.000553273
0.00198673
0.000628171
0.00103132
0.000374658
-0.000952597
-0.000309392
-0.00343484
-0.000644851
-0.00696459
-0.0096871
-0.000131359
0.000718998
-0.000247277
0.00119444
-0.000323652
0.00127381
-0.000368825
0.00123098
-0.000392965
0.00116988
-0.000399527
0.00112277
-0.000387042
0.00109488
-0.000351291
0.00108887
-0.000285999
0.00110947
-0.000181181
0.00116244
-2.23994e-05
0.00125725
0.000206912
0.00139617
0.000527318
0.00157056
0.000933926
0.00169662
0.00132373
0.00159693
0.00146415
0.0008909
0.00114925
-0.000637701
0.000302096
-0.00258769
-0.000273478
-0.00638901
-0.00996057
-8.49702e-05
0.000803968
-0.000265974
0.00137544
-0.000382647
0.00139048
-0.000442625
0.00129096
-0.000461711
0.00118896
-0.000450053
0.00111111
-0.000410231
0.00105506
-0.000339663
0.0010183
-0.000232379
0.00100219
-7.65882e-05
0.00100665
0.000141314
0.00103935
0.000438277
0.00109921
0.000826289
0.00118255
0.00129131
0.0012316
0.00173088
0.00115737
0.0019017
0.00072008
0.00156429
-0.000300295
0.000742988
-0.00176638
0.000126335
-0.00577236
-0.00983424
-0.000380454
0.00118442
-0.000441803
0.00143679
-0.000495588
0.00144427
-0.000538664
0.00133403
-0.000534724
0.00118502
-0.000489729
0.00106612
-0.000407587
0.000972916
-0.00028668
0.000897391
-0.00012749
0.000842997
7.79373e-05
0.000801224
0.000335058
0.00078223
0.000657569
0.000776699
0.00104555
0.000794571
0.00147433
0.000802811
0.00188757
0.00074413
0.00209353
0.00051412
0.00200565
-0.00021242
0.00158122
-0.00134195
0.000875524
-0.00506666
-0.00895872
-0.00136239
0.00254681
-0.00132649
0.00140089
-0.0010699
0.00118768
-0.000701404
0.000965534
-0.000312191
0.00079581
8.13818e-05
0.000672544
0.000467853
0.000586445
0.000846392
0.000518852
0.00121922
0.000470173
0.00159092
0.000429522
0.00197013
0.000403014
0.00236407
0.000382765
0.00279084
0.000367801
0.00324409
0.000349563
0.00371099
0.000277221
0.00407897
0.000146142
0.00417856
-0.000312004
0.00400084
-0.00116423
0.00253273
-0.00359855
-0.00642598
0.00254681
0.0039477
0.00513539
0.00610092
0.00689673
0.00756928
0.00815572
0.00867457
0.00914474
0.00957427
0.00997728
0.01036
0.0107278
0.0110774
0.0113546
0.0115008
0.0111888
0.0100245
0.00642598
)
;

boundaryField
{
    movingWall
    {
        type            calculated;
        value           uniform 0;
    }
    fixedWalls
    {
        type            calculated;
        value           uniform 0;
    }
    frontAndBack
    {
        type            empty;
        value           nonuniform List<scalar> 0();
    }
}


// ************************************************************************* //
