/*--------------------------------*- C++ -*----------------------------------*\
  =========                 |
  \\      /  F ield         | OpenFOAM: The Open Source CFD Toolbox
   \\    /   O peration     | Website:  https://openfoam.org
    \\  /    A nd           | Version:  10
     \\/     M anipulation  |
\*---------------------------------------------------------------------------*/
FoamFile
{
    format      ascii;
    class       volScalarField;
    location    "7.85";
    object      p;
}
// * * * * * * * * * * * * * * * * * * * * * * * * * * * * * * * * * * * * * //

dimensions      [0 2 -2 0 0 0 0];

internalField   nonuniform List<scalar> 
475
(
-0.054103
-0.0794768
-0.108854
-0.132461
-0.155177
-0.0798664
-0.0931879
-0.10945
-0.128497
-0.145441
-0.0779965
-0.0873328
-0.102287
-0.119747
-0.136108
-0.0773415
-0.0880856
-0.102964
-0.118385
-0.131934
-0.0474671
-0.0744008
-0.0980118
-0.115638
-0.128384
-0.173461
-0.184161
-0.187996
-0.189623
-0.191847
-0.195149
-0.199133
-0.202305
-0.203132
-0.200763
-0.194753
-0.185037
-0.172462
-0.158238
-0.143564
-0.129083
-0.115229
-0.10359
-0.0962702
-0.0942191
-0.0960095
-0.098909
-0.100902
-0.101047
-0.0987788
-0.0943869
-0.0884953
-0.0813573
-0.0730882
-0.0641139
-0.055074
-0.0465033
-0.0387328
-0.0318006
-0.0256683
-0.0201524
-0.0153343
-0.0112419
-0.00809358
-0.00580832
-0.00420751
-0.00304002
-0.00199016
-0.00107162
-0.000306267
-0.162034
-0.17356
-0.179321
-0.18101
-0.18122
-0.18112
-0.180767
-0.17972
-0.177414
-0.173627
-0.168221
-0.161414
-0.153621
-0.145334
-0.136854
-0.127858
-0.118359
-0.11079
-0.106861
-0.107329
-0.110916
-0.115156
-0.117669
-0.117469
-0.114079
-0.107986
-0.100042
-0.0908797
-0.0806706
-0.0698352
-0.0590467
-0.0488062
-0.0394298
-0.0310333
-0.0237383
-0.017427
-0.0121835
-0.00797518
-0.00500762
-0.00311161
-0.00201266
-0.00140441
-0.000772028
-0.000371237
3.2519e-05
-0.149452
-0.158937
-0.164473
-0.166587
-0.166332
-0.164511
-0.161654
-0.157948
-0.153616
-0.148923
-0.144648
-0.141872
-0.14091
-0.140533
-0.136467
-0.126953
-0.119063
-0.116304
-0.115811
-0.116322
-0.118685
-0.121098
-0.122048
-0.120762
-0.116789
-0.110254
-0.101948
-0.0922888
-0.0815903
-0.0703415
-0.059127
-0.0484329
-0.0386024
-0.0298056
-0.0221567
-0.0156201
-0.0102734
-0.00611485
-0.00327787
-0.00151364
-0.000530742
-5.21438e-06
0.00046317
0.000554922
0.000580302
-0.142677
-0.15044
-0.15516
-0.15693
-0.155999
-0.152787
-0.147869
-0.141561
-0.134658
-0.127913
-0.123657
-0.123502
-0.130651
-0.143127
-0.14311
-0.126647
-0.10913
-0.104114
-0.109467
-0.117084
-0.122581
-0.125254
-0.125031
-0.122317
-0.117297
-0.10995
-0.101037
-0.0909387
-0.0800729
-0.0688606
-0.057749
-0.0471452
-0.0373432
-0.0285447
-0.0208729
-0.0143769
-0.00913626
-0.00513017
-0.00237144
-0.000601423
0.000388187
0.000924322
0.00121702
0.00109263
0.000794243
-0.137978
-0.145023
-0.149422
-0.150996
-0.149646
-0.145729
-0.139656
-0.132231
-0.124091
-0.116811
-0.112071
-0.11296
-0.123095
-0.13785
-0.143142
-0.13621
-0.125269
-0.11717
-0.114883
-0.11658
-0.119357
-0.121116
-0.12096
-0.11852
-0.11367
-0.106826
-0.0983366
-0.0886184
-0.0780847
-0.0671748
-0.0563324
-0.0459348
-0.0363017
-0.0276435
-0.0200904
-0.0137168
-0.00858933
-0.00468856
-0.00196
-0.000186241
0.000828934
0.00137823
0.00155121
0.00137603
0.000871797
-0.1986
-0.199152
-0.199969
-0.201093
-0.202961
-0.206524
-0.211665
-0.217032
-0.220734
-0.220519
-0.214824
-0.202958
-0.185016
-0.161754
-0.134817
-0.106329
-0.0791284
-0.0550178
-0.0352138
-0.0205562
-0.0112054
-0.00667462
-0.00600975
-0.00805448
-0.0116916
-0.016039
-0.0204398
-0.0243108
-0.027478
-0.0299284
-0.0317892
-0.0332438
-0.0342675
-0.0344887
-0.0335006
-0.0313405
-0.0283333
-0.0247453
-0.0208345
-0.0167866
-0.0129256
-0.00943862
-0.0064556
-0.00379764
-0.00116585
-0.192921
-0.194961
-0.196225
-0.198611
-0.202247
-0.20757
-0.214096
-0.220559
-0.225159
-0.225776
-0.220934
-0.209899
-0.192323
-0.169031
-0.141902
-0.112215
-0.0846692
-0.0600919
-0.0399668
-0.024889
-0.0150984
-0.0101567
-0.00908324
-0.0107364
-0.0140138
-0.0180142
-0.0221168
-0.0258551
-0.0286734
-0.0305556
-0.0319267
-0.0332074
-0.0343227
-0.034622
-0.0336469
-0.0314136
-0.028292
-0.0244926
-0.0203085
-0.0160226
-0.0120894
-0.00887692
-0.00625588
-0.00394733
-0.00146698
-0.201907
-0.200468
-0.200063
-0.200796
-0.204066
-0.209927
-0.217245
-0.22428
-0.229662
-0.230498
-0.225641
-0.214507
-0.197109
-0.174207
-0.147472
-0.119198
-0.092394
-0.0687767
-0.049516
-0.0351804
-0.0259991
-0.0214894
-0.0205383
-0.0219112
-0.0245651
-0.0276567
-0.0306542
-0.033023
-0.0345383
-0.0350813
-0.0350854
-0.035059
-0.0349647
-0.0341391
-0.0321936
-0.0293864
-0.0261292
-0.022671
-0.0190071
-0.0152695
-0.0116604
-0.00851788
-0.0058067
-0.00348006
-0.00135537
-0.18925
-0.191687
-0.192953
-0.195491
-0.199863
-0.206223
-0.213752
-0.220901
-0.226041
-0.227279
-0.223002
-0.2126
-0.196237
-0.175034
-0.150653
-0.125361
-0.101539
-0.0808207
-0.0643462
-0.0527054
-0.0457703
-0.0427316
-0.0423487
-0.0433986
-0.0448928
-0.0460565
-0.0466661
-0.0464545
-0.0453615
-0.0432908
-0.040717
-0.0381592
-0.0356577
-0.0328865
-0.0297836
-0.0265366
-0.0232959
-0.0198903
-0.0162884
-0.0126245
-0.0093227
-0.0066157
-0.00451893
-0.00271553
-0.00108591
-0.225502
-0.204951
-0.201115
-0.199146
-0.200623
-0.205416
-0.211703
-0.217217
-0.220511
-0.220095
-0.214904
-0.204471
-0.189321
-0.170687
-0.150085
-0.129309
-0.110081
-0.0939214
-0.0821444
-0.0752862
-0.0724518
-0.0720421
-0.0726575
-0.0732819
-0.0731241
-0.0716835
-0.0687868
-0.0649171
-0.0599142
-0.0541775
-0.048222
-0.0425033
-0.0372433
-0.0323454
-0.0277054
-0.0232298
-0.0190819
-0.0152985
-0.0119971
-0.0091821
-0.00687637
-0.00496077
-0.00337863
-0.00194141
-0.00071752
)
;

boundaryField
{
    inlet
    {
        type            zeroGradient;
    }
    outlet
    {
        type            fixedValue;
        value           uniform 0;
    }
    upperWall
    {
        type            zeroGradient;
    }
    lowerWall
    {
        type            zeroGradient;
    }
    frontAndBack
    {
        type            empty;
    }
}


// ************************************************************************* //
