/*--------------------------------*- C++ -*----------------------------------*\
  =========                 |
  \\      /  F ield         | OpenFOAM: The Open Source CFD Toolbox
   \\    /   O peration     | Website:  https://openfoam.org
    \\  /    A nd           | Version:  10
     \\/     M anipulation  |
\*---------------------------------------------------------------------------*/
FoamFile
{
    format      ascii;
    class       volScalarField;
    location    "9";
    object      p;
}
// * * * * * * * * * * * * * * * * * * * * * * * * * * * * * * * * * * * * * //

dimensions      [0 2 -2 0 0 0 0];

internalField   nonuniform List<scalar> 
400
(
2.30151e-10
-1.64317e-05
2.78156e-05
0.00012813
0.000284151
0.000498264
0.00077402
0.00111552
0.00152642
0.00200847
0.00255969
0.00317188
0.00382784
0.00449835
0.00514122
0.00570421
0.00613503
0.00639883
0.00649265
0.0064311
1.8353e-05
1.65094e-06
5.09888e-05
0.000153759
0.000308622
0.000519093
0.000789335
0.00112371
0.00152612
0.00199882
0.00254062
0.00314439
0.00379436
0.00446337
0.00510819
0.0056744
0.00610648
0.00636835
0.00645775
0.00638529
-3.82411e-05
-6.09643e-05
-1.29796e-05
8.71728e-05
0.000236999
0.000440574
0.000702783
0.00102897
0.00142447
0.00189357
0.00243779
0.00305316
0.00372684
0.00443203
0.00512212
0.00573271
0.00619357
0.00645739
0.00652381
0.00641198
-0.000173118
-0.000201647
-0.000157987
-6.4094e-05
7.69874e-05
0.000269921
0.000520574
0.000835831
0.00122335
0.00169073
0.00224387
0.00288369
0.00360157
0.0043744
0.00514903
0.00584385
0.00636095
0.0066295
0.00665335
0.00647518
-0.000389608
-0.00042282
-0.000385419
-0.000301046
-0.000172747
4.8696e-06
0.000238846
0.000537947
0.000912736
0.00137519
0.00193734
0.00260746
0.00338346
0.00425258
0.00515466
0.00598401
0.00659525
0.00687124
0.00681943
0.00652494
-0.000687482
-0.000725347
-0.000696462
-0.000625381
-0.000515005
-0.000359294
-0.000150117
0.000123129
0.000474056
0.000919544
0.00147924
0.00217276
0.00301343
0.00399296
0.00506816
0.00610204
0.00686936
0.00716091
0.00698138
0.00647535
-0.00106334
-0.00110654
-0.00108888
-0.00103566
-0.000949855
-0.000825183
-0.000652983
-0.000421515
-0.000114906
0.000287878
0.000814013
0.00149679
0.0023697
0.0034474
0.00472586
0.00605353
0.00708665
0.00742686
0.00705192
0.00617786
-0.00151166
-0.00156117
-0.00155768
-0.00152752
-0.00147421
-0.00139209
-0.00127315
-0.00110623
-0.000875517
-0.000558824
-0.000125243
0.000467344
0.00127282
0.00235147
0.00375477
0.0054339
0.00691982
0.00744759
0.0068504
0.00546176
-0.00202502
-0.00208181
-0.00209523
-0.00209317
-0.00208061
-0.00205373
-0.00200713
-0.00193309
-0.00182031
-0.00165226
-0.0014056
-0.00105015
-0.000540254
0.000211693
0.00134887
0.00320629
0.00531873
0.00648154
0.00604563
0.00445273
-0.00259416
-0.0026589
-0.00269086
-0.00272051
-0.00275545
-0.00279542
-0.00284005
-0.00288903
-0.00294229
-0.00300033
-0.00306676
-0.00316591
-0.00336552
-0.0036644
-0.00364589
-0.0026154
-0.000126246
0.00258399
0.00395222
0.00392177
-0.00320844
-0.00328115
-0.00333096
-0.00339254
-0.00347773
-0.00359162
-0.0037414
-0.00393845
-0.00420178
-0.00456407
-0.00508428
-0.00590004
-0.0073356
-0.00972904
-0.0125379
-0.0137136
-0.0116279
-0.00666803
-0.0011024
0.00329351
-0.00385718
-0.0039367
-0.00399962
-0.00408757
-0.00421875
-0.00440504
-0.00466294
-0.00501835
-0.00551497
-0.00623013
-0.00730456
-0.00903303
-0.0120628
-0.0171547
-0.0237072
-0.0282588
-0.0271442
-0.0204961
-0.0108896
-0.00114386
-0.00453218
-0.00461546
-0.00468057
-0.00478078
-0.00494363
-0.00518861
-0.00554123
-0.00604121
-0.00675583
-0.00780574
-0.00941423
-0.0120136
-0.0164357
-0.0236244
-0.0328955
-0.0402068
-0.0404308
-0.0336166
-0.0224499
-0.00940296
-0.00523139
-0.00531084
-0.00535681
-0.00544399
-0.00561315
-0.00589015
-0.00630616
-0.00690941
-0.00778092
-0.0090627
-0.0110149
-0.014137
-0.0192268
-0.0270745
-0.0369454
-0.0451191
-0.0460011
-0.0398307
-0.0295073
-0.0160093
-0.00597026
-0.00603345
-0.00602613
-0.00605845
-0.00619446
-0.00646425
-0.00689786
-0.00754314
-0.00848169
-0.0098492
-0.011852
-0.0150186
-0.0200158
-0.0273044
-0.0360708
-0.0428346
-0.0440093
-0.038608
-0.0305035
-0.0173406
-0.00678143
-0.00678843
-0.00664978
-0.00657411
-0.00664068
-0.00686764
-0.00727403
-0.00789923
-0.00881819
-0.0101684
-0.0119073
-0.0148337
-0.0191475
-0.0250349
-0.0317471
-0.0365586
-0.037196
-0.0326222
-0.0273823
-0.012366
-0.00770477
-0.00769986
-0.00734712
-0.00705887
-0.00698271
-0.00711457
-0.00744512
-0.00799214
-0.00880643
-0.00995923
-0.0115993
-0.0140316
-0.0174595
-0.0218182
-0.0264852
-0.0294752
-0.0293549
-0.0251928
-0.0198407
0.00251037
-0.00968549
-0.00880027
-0.00767541
-0.00715221
-0.00701209
-0.00709668
-0.00736927
-0.00783417
-0.00853776
-0.00953544
-0.0109844
-0.0130282
-0.0158093
-0.0191453
-0.022551
-0.0242801
-0.0227691
-0.0160724
-0.00246418
0.0380451
-0.00886323
-0.0107804
-0.00905579
-0.00794309
-0.00743938
-0.00731487
-0.00743178
-0.00774309
-0.00830684
-0.00915759
-0.010458
-0.0122646
-0.014749
-0.0175657
-0.0202221
-0.0206942
-0.0160671
0.000408516
0.0369836
0.107378
-0.0265469
-0.0114838
-0.00638203
-0.00540025
-0.00533315
-0.00540937
-0.00566221
-0.00610619
-0.00683655
-0.00784076
-0.00930561
-0.0112565
-0.0138285
-0.016568
-0.0183881
-0.0159599
-0.00336381
0.03064
0.0993575
0.204531
)
;

boundaryField
{
    movingWall
    {
        type            zeroGradient;
    }
    fixedWalls
    {
        type            zeroGradient;
    }
    frontAndBack
    {
        type            empty;
    }
}


// ************************************************************************* //
