/*--------------------------------*- C++ -*----------------------------------*\
  =========                 |
  \\      /  F ield         | OpenFOAM: The Open Source CFD Toolbox
   \\    /   O peration     | Website:  https://openfoam.org
    \\  /    A nd           | Version:  10
     \\/     M anipulation  |
\*---------------------------------------------------------------------------*/
FoamFile
{
    format      ascii;
    class       surfaceScalarField;
    location    "9";
    object      phi;
}
// * * * * * * * * * * * * * * * * * * * * * * * * * * * * * * * * * * * * * //

dimensions      [0 3 -1 0 0 0 0];

internalField   nonuniform List<scalar> 
760
(
-1.17655e-05
1.17655e-05
-3.86967e-05
2.69312e-05
-7.16333e-05
3.29367e-05
-0.000106321
3.4688e-05
-0.000141475
3.51534e-05
-0.000176688
3.52128e-05
-0.000211536
3.4848e-05
-0.000245251
3.37157e-05
-0.000276573
3.13217e-05
-0.000303642
2.7069e-05
-0.000323952
2.03103e-05
-0.000334406
1.0454e-05
-0.000331526
-2.87956e-06
-0.000312072
-1.94548e-05
-0.000274126
-3.79459e-05
-0.000218473
-5.56531e-05
-0.00015005
-6.84229e-05
-7.90912e-05
-7.09586e-05
-2.1992e-05
-5.70992e-05
-2.1992e-05
-2.91912e-05
4.09567e-05
-8.32115e-05
8.09515e-05
-0.000146907
9.6632e-05
-0.00021358
0.000101361
-0.000280501
0.000102074
-0.000346338
0.00010105
-0.00040987
9.83797e-05
-0.000469434
9.32798e-05
-0.000522679
8.45663e-05
-0.00056642
7.08102e-05
-0.000596616
5.05064e-05
-0.000608552
2.23904e-05
-0.00059718
-1.42511e-05
-0.000557738
-5.88975e-05
-0.000487905
-0.000107778
-0.00038947
-0.000154089
-0.000270742
-0.00018715
-0.000148306
-0.000193395
-4.71433e-05
-0.000158262
-6.91353e-05
-3.79129e-05
7.88697e-05
-0.000105462
0.0001485
-0.000183864
0.000175034
-0.000265301
0.000182798
-0.000346573
0.000183346
-0.000426056
0.000180533
-0.000502285
0.000174609
-0.000573367
0.000164362
-0.000636693
0.000147893
-0.000688752
0.000122869
-0.00072502
8.67739e-05
-0.000740049
3.742e-05
-0.000727607
-2.66925e-05
-0.000681505
-0.000105
-0.000597808
-0.000191475
-0.00047756
-0.000274337
-0.000330627
-0.000334083
-0.000178773
-0.000345249
-5.5149e-05
-0.000281886
-0.000124284
-4.14361e-05
0.000120306
-0.000115338
0.000222402
-0.000200766
0.000260462
-0.000289288
0.00027132
-0.000377688
0.000271745
-0.000464487
0.000267332
-0.000548425
0.000258547
-0.000627841
0.000243777
-0.000700336
0.000220388
-0.000762473
0.000185007
-0.000809473
0.000133773
-0.000835043
6.29899e-05
-0.000831433
-3.03024e-05
-0.000789023
-0.00014741
-0.00070006
-0.000280437
-0.00056228
-0.000412118
-0.000386052
-0.00051031
-0.000201228
-0.000530074
-5.60516e-05
-0.000427062
-0.000180336
-4.26387e-05
0.000162945
-0.000119463
0.000299227
-0.000208483
0.000349482
-0.000300976
0.000363813
-0.000393923
0.000364693
-0.000486253
0.000359662
-0.000577217
0.000349511
-0.000665739
0.0003323
-0.000750012
0.00030466
-0.000827032
0.000262027
-0.000891998
0.000198739
-0.00093759
0.000108582
-0.000954367
-1.35245e-05
-0.000927068
-0.000174709
-0.000840831
-0.000366674
-0.000685406
-0.000567544
-0.000468399
-0.000727317
-0.000231734
-0.000766739
-5.34894e-05
-0.000605307
-0.000233825
-4.28709e-05
0.000205815
-0.000121148
0.000377504
-0.000212341
0.000440675
-0.000307612
0.000459084
-0.000404265
0.000461345
-0.00050181
0.000457207
-0.000600274
0.000447974
-0.000699523
0.000431549
-0.000798805
0.000403943
-0.000896152
0.000359374
-0.000987446
0.000290033
-0.00106499
0.00018613
-0.0011171
3.85788e-05
-0.00112335
-0.000168452
-0.00105618
-0.000433847
-0.000888167
-0.000735558
-0.000614096
-0.00100139
-0.000289793
-0.00109104
-5.00244e-05
-0.000845076
-0.00028385
-4.26239e-05
0.000248439
-0.000121668
0.000456549
-0.000214332
0.000533339
-0.000311707
0.00055646
-0.000411485
0.000561123
-0.000513898
0.000559621
-0.000619994
0.00055407
-0.000730987
0.000542541
-0.000847823
0.000520779
-0.000970528
0.000482079
-0.00109709
0.000416595
-0.00122168
0.000310715
-0.00133073
0.000147634
-0.00140356
-9.56181e-05
-0.00139219
-0.000445226
-0.00123504
-0.000892709
-0.000890731
-0.00134569
-0.000423446
-0.00155833
-6.00327e-05
-0.00120849
-0.000343883
-4.20301e-05
0.000290469
-0.000121367
0.000535885
-0.000214885
0.000626857
-0.00031355
0.000655125
-0.000415442
0.000663015
-0.000521602
0.000665781
-0.000634304
0.000666771
-0.000756513
0.000664751
-0.000891623
0.000655889
-0.00104298
0.000633441
-0.00121305
0.000586662
-0.00140168
0.000499343
-0.00160049
0.000346445
-0.00179053
9.44249e-05
-0.00190108
-0.000334679
-0.00180753
-0.000986257
-0.00139863
-0.00175459
-0.000733004
-0.00222396
-0.000135086
-0.00180641
-0.000478968
-4.11504e-05
0.00033162
-0.000120351
0.000615086
-0.000213981
0.000720487
-0.000312726
0.000753869
-0.000414985
0.000765274
-0.000522608
0.000773405
-0.000639191
0.000783354
-0.000769746
0.000795306
-0.00092084
0.000806983
-0.00110075
0.000813346
-0.0013194
0.000805318
-0.00158794
0.000767885
-0.00191386
0.00067236
-0.0022689
0.000449462
-0.00258032
-2.32573e-05
-0.00261076
-0.000955819
-0.00218583
-0.00217952
-0.00134171
-0.00306808
-0.000389344
-0.00275877
-0.000868313
-4.01528e-05
0.000371773
-0.000118921
0.000693854
-0.000211817
0.000813382
-0.000309001
0.000851054
-0.000409056
0.000865328
-0.000514515
0.000878864
-0.000630173
0.000899012
-0.000763043
0.000928175
-0.000923096
0.000967036
-0.00112452
0.00101477
-0.00138726
0.00106806
-0.00173758
0.0011182
-0.00219927
0.00113406
-0.00274938
0.000999571
-0.00322769
0.000455054
-0.00340328
-0.00078023
-0.00307047
-0.00251233
-0.00221284
-0.00392571
-0.000908298
-0.00406331
-0.00177661
-3.94543e-05
0.000411227
-0.000117881
0.000772281
-0.000209263
0.000904764
-0.000302934
0.000944724
-0.000397477
0.000959872
-0.000495859
0.000977246
-0.000603646
0.0010068
-0.000729212
0.00105374
-0.000885091
0.00112292
-0.00109036
0.00122004
-0.00137332
0.00135102
-0.00176954
0.00151442
-0.00230226
0.00166677
-0.00292822
0.00162553
-0.00347267
0.000999504
-0.00370438
-0.000548514
-0.00356211
-0.0026546
-0.00292467
-0.00456315
-0.00155043
-0.00543755
-0.00332704
-3.98766e-05
0.000451103
-0.000118851
0.000851255
-0.00020827
0.000994184
-0.000296359
0.00103281
-0.000381605
0.00104512
-0.000467093
0.00106273
-0.000558419
0.00109813
-0.000663953
0.00115927
-0.000796362
0.00125532
-0.000975192
0.00139887
-0.00122899
0.00160481
-0.0015882
0.00187364
-0.00205396
0.00213253
-0.00255773
0.0021293
-0.00297504
0.00141681
-0.00318283
-0.00034073
-0.00323742
-0.00260001
-0.00294154
-0.00485904
-0.00187374
-0.00650534
-0.00520078
-4.28382e-05
0.000493942
-0.000124603
0.00093302
-0.000212278
0.00108186
-0.000292819
0.00111335
-0.000364865
0.00111716
-0.000431464
0.00112933
-0.000497376
0.00116404
-0.000569081
0.00123098
-0.000655777
0.00134202
-0.000770499
0.00151359
-0.000929721
0.00176403
-0.00114555
0.00208947
-0.00140203
0.00238901
-0.00164892
0.00237619
-0.00184716
0.00161505
-0.00205782
-0.000130067
-0.0022666
-0.00239123
-0.00231899
-0.00480665
-0.00166494
-0.00715939
-0.00686572
-5.09029e-05
0.000544845
-0.000139688
0.0010218
-0.000226383
0.00116855
-0.000297447
0.00118442
-0.000352693
0.00117241
-0.0003953
0.00117194
-0.000428544
0.00119728
-0.000455511
0.00125795
-0.000479287
0.0013658
-0.000502334
0.00153664
-0.000523752
0.00178545
-0.000540071
0.00210579
-0.000537979
0.00238692
-0.000528202
0.00236642
-0.000557348
0.0016442
-0.00072968
4.22641e-05
-0.00107561
-0.0020453
-0.00143653
-0.00444573
-0.00118747
-0.00740845
-0.00805319
-6.79149e-05
0.000612759
-0.000171268
0.00112516
-0.000259415
0.0012567
-0.000318636
0.00124364
-0.000353184
0.00120696
-0.000367915
0.00118667
-0.000364578
0.00119394
-0.000342326
0.0012357
-0.000297755
0.00132123
-0.000224109
0.001463
-0.000103538
0.00166488
7.95393e-05
0.00192271
0.000301494
0.00216497
0.000522925
0.00214499
0.00063175
0.00153537
0.000487118
0.000186897
9.99537e-05
-0.00165814
-0.000511649
-0.00383413
-0.000706879
-0.00721322
-0.00876007
-0.000100805
0.000713565
-0.000228291
0.00125264
-0.00031554
0.00134395
-0.000359595
0.00128769
-0.000371362
0.00121873
-0.000357387
0.0011727
-0.000318209
0.00115477
-0.000249562
0.00116705
-0.000142708
0.00121437
1.75504e-05
0.00130274
0.000240757
0.00144167
0.000545855
0.00161761
0.000936005
0.00177481
0.00133046
0.00175053
0.00154838
0.00131745
0.00142874
0.000306538
0.000903376
-0.00113277
0.000159234
-0.00308998
-0.000249401
-0.00680458
-0.00900947
-0.000171126
0.000884691
-0.000360054
0.00144157
-0.000436792
0.00142069
-0.000441461
0.00129236
-0.000416988
0.00119425
-0.000371967
0.00112767
-0.000301375
0.00108417
-0.000195537
0.00106121
-4.34158e-05
0.00106225
0.000171439
0.00108788
0.000462616
0.0011505
0.000845476
0.00123475
0.00130545
0.00131484
0.00176505
0.00129093
0.00203577
0.00104673
0.00196141
0.000380898
0.00144563
-0.000616987
0.000751505
-0.00239586
0.000170128
-0.00622321
-0.00883935
-0.000169959
0.00105465
-0.00039468
0.00166629
-0.000514598
0.00154061
-0.000549468
0.00132723
-0.000520735
0.00116552
-0.000446115
0.00105305
-0.000330177
0.000968236
-0.000169194
0.000900227
3.95808e-05
0.000853477
0.0003032
0.000824262
0.00063252
0.000821177
0.00103892
0.00082835
0.00150057
0.000853187
0.00196396
0.000827543
0.0022809
0.00072979
0.00229029
0.00037151
0.0020033
-0.000330001
0.00148146
-0.00187402
0.000683887
-0.00542564
-0.00815546
-0.00157142
0.00262607
-0.00151262
0.00160749
-0.0010547
0.00108269
-0.00061195
0.000884481
-0.000206571
0.000760139
0.00018712
0.000659364
0.000574573
0.000580783
0.000960748
0.000514051
0.00134453
0.000469699
0.00173854
0.000430246
0.00214466
0.000415059
0.00257443
0.000398584
0.00301884
0.000408777
0.0034518
0.000394583
0.00383576
0.000345823
0.00405124
0.000156032
0.00400189
-0.000280646
0.00366443
-0.00153656
0.00211514
-0.00387635
-0.00604032
0.00262607
0.00423357
0.00531625
0.00620073
0.00696087
0.00762024
0.00820102
0.00871507
0.00918477
0.00961501
0.0100301
0.0104287
0.0108374
0.011232
0.0115778
0.0117339
0.0114532
0.00991667
0.00604032
)
;

boundaryField
{
    movingWall
    {
        type            calculated;
        value           uniform 0;
    }
    fixedWalls
    {
        type            calculated;
        value           uniform 0;
    }
    frontAndBack
    {
        type            empty;
        value           nonuniform List<scalar> 0();
    }
}


// ************************************************************************* //
