/*--------------------------------*- C++ -*----------------------------------*\
  =========                 |
  \\      /  F ield         | OpenFOAM: The Open Source CFD Toolbox
   \\    /   O peration     | Website:  https://openfoam.org
    \\  /    A nd           | Version:  10
     \\/     M anipulation  |
\*---------------------------------------------------------------------------*/
FoamFile
{
    format      ascii;
    class       volVectorField;
    location    "9";
    object      U;
}
// * * * * * * * * * * * * * * * * * * * * * * * * * * * * * * * * * * * * * //

dimensions      [0 1 -1 0 0 0 0];

internalField   nonuniform List<vector> 
400
(
(-0.000199218 0.000184612 0)
(-0.00113206 0.000501501 0)
(-0.00271839 0.000630095 0)
(-0.00444354 0.000667953 0)
(-0.00619846 0.000683232 0)
(-0.00796284 0.0006953 0)
(-0.00972098 0.00070292 0)
(-0.0114445 0.000697924 0)
(-0.0130835 0.000668907 0)
(-0.0145602 0.000602004 0)
(-0.0157649 0.000481791 0)
(-0.0165561 0.000293261 0)
(-0.016766 2.54937e-05 0)
(-0.0162208 -0.000320796 0)
(-0.0147845 -0.000716755 0)
(-0.0124225 -0.00110373 0)
(-0.00927162 -0.00138967 0)
(-0.005682 -0.00145541 0)
(-0.00224836 -0.00115806 0)
(-0.000330535 -0.000398086 0)
(-0.00056921 0.00116661 0)
(-0.00258194 0.00244612 0)
(-0.00567677 0.00295576 0)
(-0.00900768 0.0031108 0)
(-0.0123687 0.00314728 0)
(-0.0157013 0.00313946 0)
(-0.0189518 0.00308765 0)
(-0.0220505 0.00296398 0)
(-0.024898 0.00272762 0)
(-0.027356 0.00232946 0)
(-0.0292426 0.00171673 0)
(-0.0303354 0.000842247 0)
(-0.0303837 -0.000319325 0)
(-0.0291319 -0.00174343 0)
(-0.0263915 -0.00331646 0)
(-0.0221393 -0.00481257 0)
(-0.0166154 -0.0058851 0)
(-0.010387 -0.0060959 0)
(-0.00442842 -0.0049582 0)
(-0.000834796 -0.0020622 0)
(-0.000753671 0.00293944 0)
(-0.0033104 0.0056288 0)
(-0.00714539 0.00666935 0)
(-0.0112292 0.00698038 0)
(-0.0153227 0.00701514 0)
(-0.0193589 0.00692413 0)
(-0.0232717 0.00671516 0)
(-0.0269797 0.00633847 0)
(-0.0303721 0.00571762 0)
(-0.0332961 0.00476002 0)
(-0.0355497 0.00336674 0)
(-0.0368803 0.00145131 0)
(-0.0369895 -0.00102929 0)
(-0.0355544 -0.00402806 0)
(-0.0323059 -0.00731954 0)
(-0.0271566 -0.0104445 0)
(-0.0203564 -0.0126776 0)
(-0.0126214 -0.0130939 0)
(-0.00524827 -0.0107268 0)
(-0.000935242 -0.0047431 0)
(-0.000820338 0.00495911 0)
(-0.00361834 0.00923048 0)
(-0.0078094 0.0108379 0)
(-0.012253 0.0113014 0)
(-0.0167013 0.0113234 0)
(-0.0210975 0.0111383 0)
(-0.0253847 0.0107633 0)
(-0.0294929 0.0101277 0)
(-0.0333228 0.00911859 0)
(-0.0367301 0.00759535 0)
(-0.0395096 0.00540182 0)
(-0.041384 0.0023928 0)
(-0.0419978 -0.0015231 0)
(-0.040903 -0.00632363 0)
(-0.0376425 -0.0116897 0)
(-0.0319386 -0.0168936 0)
(-0.0239461 -0.020687 0)
(-0.0145554 -0.0214075 0)
(-0.00561129 -0.0174019 0)
(-0.000801298 -0.00755021 0)
(-0.000835773 0.00707063 0)
(-0.00373256 0.0130153 0)
(-0.00809957 0.0152158 0)
(-0.0127347 0.015841 0)
(-0.0173928 0.0158673 0)
(-0.0220366 0.0156208 0)
(-0.0266329 0.0151319 0)
(-0.0311395 0.0143112 0)
(-0.0354881 0.0130091 0)
(-0.0395618 0.0110291 0)
(-0.0431674 0.00813769 0)
(-0.0460079 0.00408977 0)
(-0.0476638 -0.00132012 0)
(-0.0475055 -0.00814599 0)
(-0.0447513 -0.0160886 0)
(-0.0387307 -0.0241317 0)
(-0.0292806 -0.0302703 0)
(-0.0174091 -0.0315851 0)
(-0.00590412 -0.0252354 0)
(-0.000442673 -0.0102542 0)
(-0.000830187 0.00921176 0)
(-0.00376461 0.0168977 0)
(-0.00823079 0.0197253 0)
(-0.0129902 0.0205378 0)
(-0.0178054 0.0206077 0)
(-0.0226654 0.0203642 0)
(-0.0275712 0.0198581 0)
(-0.0325244 0.0189868 0)
(-0.0375079 0.0175658 0)
(-0.0424594 0.0153372 0)
(-0.0472319 0.0119672 0)
(-0.0515457 0.00705736 0)
(-0.0549178 0.000206422 0)
(-0.0565503 -0.00883326 0)
(-0.0552232 -0.0200135 0)
(-0.0495118 -0.0321309 0)
(-0.0384282 -0.0421646 0)
(-0.0227072 -0.0449396 0)
(-0.00652992 -0.035102 0)
(0.000247389 -0.0127133 0)
(-0.000813657 0.0113505 0)
(-0.00375651 0.0208326 0)
(-0.00828567 0.0243238 0)
(-0.0131342 0.025356 0)
(-0.0180739 0.0255199 0)
(-0.0231244 0.0253626 0)
(-0.0283307 0.024967 0)
(-0.0337532 0.0242293 0)
(-0.0394519 0.0229407 0)
(-0.0454595 0.0207866 0)
(-0.0517385 0.0173247 0)
(-0.0581011 0.0119715 0)
(-0.0640933 0.00403497 0)
(-0.0689021 -0.00719847 0)
(-0.0708204 -0.022209 0)
(-0.0670996 -0.0401724 0)
(-0.0548657 -0.0570028 0)
(-0.0336148 -0.0635955 0)
(-0.00908539 -0.0489068 0)
(0.00124992 -0.0151101 0)
(-0.000788668 0.0134675 0)
(-0.00371994 0.0247931 0)
(-0.00828528 0.0289804 0)
(-0.0131872 0.0302609 0)
(-0.0182048 0.0305669 0)
(-0.0233902 0.0305825 0)
(-0.028839 0.0304402 0)
(-0.0346848 0.0300559 0)
(-0.0410912 0.029221 0)
(-0.0482351 0.0275914 0)
(-0.0562722 0.0246427 0)
(-0.0652675 0.0196171 0)
(-0.0750977 0.0114505 0)
(-0.0851832 -0.00128504 0)
(-0.093439 -0.020115 0)
(-0.0949327 -0.046123 0)
(-0.0830548 -0.0745468 0)
(-0.0553226 -0.0900865 0)
(-0.0185378 -0.0707459 0)
(0.00178119 -0.0193014 0)
(-0.000756837 0.0155469 0)
(-0.00365988 0.0287572 0)
(-0.00823396 0.0336624 0)
(-0.0131412 0.0352032 0)
(-0.0181622 0.0356818 0)
(-0.02338 0.0359417 0)
(-0.0289422 0.0361885 0)
(-0.0350634 0.0363885 0)
(-0.0420322 0.0363778 0)
(-0.0502184 0.0358448 0)
(-0.0600772 0.0342687 0)
(-0.0721622 0.0308375 0)
(-0.0870526 0.0242288 0)
(-0.104752 0.0119459 0)
(-0.123045 -0.0103963 0)
(-0.133211 -0.0469075 0)
(-0.123375 -0.0936705 0)
(-0.0915292 -0.12593 0)
(-0.0437599 -0.107046 0)
(-0.000768596 -0.0304472 0)
(-0.000723146 0.0175777 0)
(-0.00358952 0.0327059 0)
(-0.00814671 0.0383298 0)
(-0.0129986 0.0401124 0)
(-0.0179182 0.040758 0)
(-0.023013 0.0412949 0)
(-0.0284756 0.0420283 0)
(-0.0345948 0.0430139 0)
(-0.0417844 0.0441958 0)
(-0.0506269 0.0454007 0)
(-0.0619303 0.0462818 0)
(-0.0768641 0.0462239 0)
(-0.0971698 0.0438277 0)
(-0.124037 0.0347986 0)
(-0.153069 0.0094157 0)
(-0.170884 -0.0424472 0)
(-0.16409 -0.114721 0)
(-0.13574 -0.170302 0)
(-0.0861549 -0.162113 0)
(-0.0102822 -0.0559274 0)
(-0.000699548 0.0195628 0)
(-0.00354145 0.0366322 0)
(-0.00806882 0.0429408 0)
(-0.0127992 0.044898 0)
(-0.0174872 0.0456485 0)
(-0.0222549 0.0464297 0)
(-0.0273232 0.0476693 0)
(-0.0330262 0.04955 0)
(-0.0398621 0.0521935 0)
(-0.0485744 0.0556935 0)
(-0.0602324 0.0600803 0)
(-0.0764106 0.0651081 0)
(-0.0996836 0.0689856 0)
(-0.132041 0.064183 0)
(-0.166957 0.0339189 0)
(-0.186195 -0.0369868 0)
(-0.181908 -0.135999 0)
(-0.164378 -0.217411 0)
(-0.123183 -0.2343 0)
(-0.0258842 -0.111769 0)
(-0.000709397 0.0215348 0)
(-0.0035796 0.0405588 0)
(-0.0080936 0.0474653 0)
(-0.0126421 0.0494606 0)
(-0.0169539 0.0501767 0)
(-0.0211586 0.0510777 0)
(-0.0254799 0.0527236 0)
(-0.0302454 0.055442 0)
(-0.0359443 0.0595765 0)
(-0.0433206 0.0655739 0)
(-0.0534157 0.0739434 0)
(-0.0676271 0.0846587 0)
(-0.0884423 0.0946565 0)
(-0.117905 0.0924152 0)
(-0.14828 0.0565573 0)
(-0.16165 -0.0273662 0)
(-0.159799 -0.145124 0)
(-0.153444 -0.25258 0)
(-0.130034 -0.312189 0)
(-0.0352526 -0.21468 0)
(-0.000793733 0.0235799 0)
(-0.00381293 0.0445505 0)
(-0.00838149 0.0518791 0)
(-0.0127064 0.053686 0)
(-0.0164965 0.0541423 0)
(-0.0198965 0.0549376 0)
(-0.023111 0.0567448 0)
(-0.0263974 0.0600155 0)
(-0.0301073 0.0652875 0)
(-0.0347452 0.0733068 0)
(-0.0409319 0.0849181 0)
(-0.0492821 0.0999756 0)
(-0.0612506 0.113851 0)
(-0.0789462 0.112502 0)
(-0.0971297 0.0739892 0)
(-0.10442 -0.0131938 0)
(-0.106208 -0.134359 0)
(-0.110173 -0.257878 0)
(-0.110709 -0.361481 0)
(-0.0270289 -0.320163 0)
(-0.00102887 0.0258997 0)
(-0.00442948 0.0488312 0)
(-0.00918047 0.0563071 0)
(-0.0132505 0.0575509 0)
(-0.0163794 0.0573939 0)
(-0.0187619 0.0577428 0)
(-0.0205763 0.0593214 0)
(-0.021962 0.0626255 0)
(-0.0230404 0.0682728 0)
(-0.0239213 0.0771095 0)
(-0.0246221 0.0900053 0)
(-0.0249577 0.10664 0)
(-0.0253641 0.121494 0)
(-0.0284875 0.120584 0)
(-0.0326935 0.0831633 0)
(-0.0350761 -0.000266313 0)
(-0.0423163 -0.111619 0)
(-0.0555431 -0.236364 0)
(-0.0815539 -0.372362 0)
(-0.0100498 -0.385309 0)
(-0.00153047 0.0287486 0)
(-0.00571188 0.0533938 0)
(-0.0109053 0.0603403 0)
(-0.0147143 0.0606172 0)
(-0.0170094 0.0595795 0)
(-0.0181776 0.059185 0)
(-0.0184073 0.0601187 0)
(-0.0177035 0.0628316 0)
(-0.0159409 0.0678908 0)
(-0.0128653 0.0760455 0)
(-0.00794533 0.0878232 0)
(-0.000699447 0.102996 0)
(0.00938551 0.11691 0)
(0.0194791 0.116705 0)
(0.0265815 0.0836603 0)
(0.0289309 0.008093 0)
(0.0158748 -0.0885414 0)
(-0.00268445 -0.202986 0)
(-0.0541656 -0.368616 0)
(0.00624903 -0.431034 0)
(-0.00255931 0.0327396 0)
(-0.00807326 0.0598565 0)
(-0.013874 0.0660249 0)
(-0.0172874 0.0641218 0)
(-0.0185925 0.0612491 0)
(-0.018459 0.0594903 0)
(-0.0171002 0.0592299 0)
(-0.014397 0.060676 0)
(-0.0100144 0.0641917 0)
(-0.00359489 0.0702532 0)
(0.00583612 0.0792298 0)
(0.0192658 0.0907432 0)
(0.0366962 0.101758 0)
(0.0553131 0.102138 0)
(0.0695154 0.0773628 0)
(0.0756301 0.0162873 0)
(0.0607218 -0.0644882 0)
(0.0408179 -0.168012 0)
(-0.0325266 -0.357729 0)
(0.0242396 -0.461986 0)
(-0.00439404 0.0418498 0)
(-0.0138429 0.0655233 0)
(-0.0205299 0.0660656 0)
(-0.0224154 0.0627339 0)
(-0.021776 0.0594357 0)
(-0.0199921 0.0570954 0)
(-0.0171265 0.0558976 0)
(-0.012762 0.0559251 0)
(-0.00638407 0.0574164 0)
(0.0026147 0.0605657 0)
(0.0151927 0.0659187 0)
(0.0321513 0.0728188 0)
(0.0531585 0.0793241 0)
(0.0758329 0.079108 0)
(0.0931834 0.0631332 0)
(0.102329 0.0205375 0)
(0.0871494 -0.0402055 0)
(0.0665677 -0.137563 0)
(-0.0129716 -0.344704 0)
(0.0480139 -0.475943 0)
(-0.00299145 0.0372494 0)
(-0.0123164 0.0820253 0)
(-0.024365 0.0818786 0)
(-0.0282218 0.0711804 0)
(-0.0275562 0.0632609 0)
(-0.0247315 0.0580722 0)
(-0.0198712 0.0543876 0)
(-0.0129034 0.0517217 0)
(-0.00377017 0.0501939 0)
(0.00802714 0.0497766 0)
(0.022885 0.0509394 0)
(0.041377 0.0529704 0)
(0.0625846 0.0553815 0)
(0.0860703 0.0538634 0)
(0.103184 0.0450325 0)
(0.11674 0.0186466 0)
(0.102279 -0.0244056 0)
(0.0898479 -0.118828 0)
(0.0253177 -0.317458 0)
(0.0881261 -0.450774 0)
(-0.0977449 0.0968797 0)
(-0.074426 0.0762416 0)
(-0.0639824 0.0575483 0)
(-0.0415078 0.0496227 0)
(-0.0208204 0.0440372 0)
(-0.00046709 0.0394904 0)
(0.0189263 0.0357666 0)
(0.0388201 0.0326215 0)
(0.0573984 0.0304412 0)
(0.0779777 0.0287467 0)
(0.0964326 0.0281475 0)
(0.119513 0.0278118 0)
(0.136915 0.0284429 0)
(0.163305 0.0279389 0)
(0.172441 0.0249273 0)
(0.198 0.0126903 0)
(0.181891 -0.0171392 0)
(0.190385 -0.0865926 0)
(0.138926 -0.228329 0)
(0.168385 -0.340973 0)
(0.135524 0.109721 0)
(0.171707 0.0872673 0)
(0.231742 0.0655697 0)
(0.287 0.0514721 0)
(0.329469 0.0422905 0)
(0.366784 0.035401 0)
(0.395284 0.030273 0)
(0.425275 0.0258267 0)
(0.446112 0.022683 0)
(0.473348 0.0195912 0)
(0.4884 0.0178537 0)
(0.515716 0.0155688 0)
(0.525398 0.014994 0)
(0.553793 0.0130422 0)
(0.55459 0.0130611 0)
(0.578021 0.00904274 0)
(0.553039 0.00402175 0)
(0.544647 -0.0154781 0)
(0.440483 -0.047215 0)
(0.339456 -0.0995827 0)
)
;

boundaryField
{
    movingWall
    {
        type            fixedValue;
        value           uniform (1 0 0);
    }
    fixedWalls
    {
        type            noSlip;
    }
    frontAndBack
    {
        type            empty;
    }
}


// ************************************************************************* //
