/*--------------------------------*- C++ -*----------------------------------*\
  =========                 |
  \\      /  F ield         | OpenFOAM: The Open Source CFD Toolbox
   \\    /   O peration     | Website:  https://openfoam.org
    \\  /    A nd           | Version:  10
     \\/     M anipulation  |
\*---------------------------------------------------------------------------*/
FoamFile
{
    format      ascii;
    class       surfaceScalarField;
    location    "9.4";
    object      phi;
}
// * * * * * * * * * * * * * * * * * * * * * * * * * * * * * * * * * * * * * //

dimensions      [0 3 -1 0 0 0 0];

internalField   nonuniform List<scalar> 
760
(
-1.3936e-05
1.3936e-05
-4.50902e-05
3.11542e-05
-8.26983e-05
3.76081e-05
-0.000122623
3.99247e-05
-0.00016367
4.10471e-05
-0.000205598
4.19275e-05
-0.000248147
4.25495e-05
-0.000290641
4.24942e-05
-0.000331762
4.11204e-05
-0.000369339
3.75777e-05
-0.000400181
3.08416e-05
-0.000420003
1.9822e-05
-0.000423621
3.61805e-06
-0.000405441
-1.81798e-05
-0.000361261
-4.41798e-05
-0.000290539
-7.07224e-05
-0.000199586
-9.09532e-05
-0.000103817
-9.57686e-05
-2.69326e-05
-7.68845e-05
-2.69325e-05
-3.40069e-05
4.79429e-05
-9.59308e-05
9.30781e-05
-0.000168573
0.000110251
-0.000245067
0.000116418
-0.000322875
0.000118856
-0.000400885
0.000119937
-0.000478011
0.000119676
-0.000552584
0.000117067
-0.000621996
0.000110533
-0.000682435
9.8016e-05
-0.000728689
7.70961e-05
-0.000754017
4.51499e-05
-0.000751313
9.1372e-07
-0.000712282
-5.72107e-05
-0.00063137
-0.000125092
-0.000508386
-0.000193707
-0.000353234
-0.000246105
-0.00019023
-0.000258773
-5.68097e-05
-0.000210304
-8.37423e-05
-4.34688e-05
9.14117e-05
-0.000120193
0.000169802
-0.000209249
0.000199307
-0.000302368
0.000209537
-0.000396507
0.000212995
-0.000490282
0.000213712
-0.0005824
0.000211794
-0.00067099
0.000205656
-0.000753219
0.000192762
-0.000824972
0.000169768
-0.000880538
0.000132663
-0.000912648
7.72599e-05
-0.000912286
5.50784e-07
-0.000868955
-0.000100541
-0.000774216
-0.000219831
-0.000625122
-0.0003428
-0.000431837
-0.00043939
-0.000226601
-0.000464009
-6.31762e-05
-0.000373729
-0.000146918
-4.71542e-05
0.000138566
-0.000130328
0.000252976
-0.000226579
0.000295558
-0.000327046
0.000310004
-0.000428683
0.000314631
-0.000530308
0.000315337
-0.000630937
0.000312423
-0.000729106
0.000303826
-0.000822456
0.000286112
-0.000907299
0.000254611
-0.000978082
0.000203446
-0.00102679
0.000125968
-0.00104265
1.64084e-05
-0.00101166
-0.000131532
-0.00091829
-0.000313198
-0.000751503
-0.000509587
-0.00051651
-0.000674384
-0.000256521
-0.000723998
-5.91929e-05
-0.000571057
-0.000206111
-4.79129e-05
0.000186479
-0.000133346
0.000338409
-0.000232477
0.000394689
-0.000336267
0.000413794
-0.000441936
0.0004203
-0.000548808
0.000422209
-0.000656605
0.00042022
-0.000764759
0.00041198
-0.000871961
0.000393314
-0.000975591
0.000358241
-0.00107088
0.000298738
-0.00114973
0.000204815
-0.00119914
6.58182e-05
-0.00120058
-0.00013009
-0.00112745
-0.00038633
-0.000951549
-0.000685488
-0.000661054
-0.000964878
-0.00030901
-0.00107604
-5.22357e-05
-0.000827831
-0.000258347
-4.7241e-05
0.00023372
-0.000132856
0.000424024
-0.000232815
0.000494648
-0.000338078
0.000519057
-0.000446249
0.000528472
-0.000557368
0.000533328
-0.000672166
0.000535018
-0.000791419
0.000531233
-0.000915511
0.000517406
-0.00104379
0.000486523
-0.00117352
0.000428461
-0.00129813
0.000329424
-0.00140449
0.000172185
-0.00147129
-6.32909e-05
-0.00145574
-0.000401877
-0.00129665
-0.000844585
-0.00093795
-0.00132358
-0.000434513
-0.00157948
-5.89572e-05
-0.00120339
-0.000317304
-4.57567e-05
0.000279477
-0.000130364
0.000508631
-0.000229904
0.000594188
-0.000335367
0.000624521
-0.000444773
0.000637877
-0.000558964
0.000647519
-0.000679917
0.000655971
-0.000810185
0.000661501
-0.000952598
0.000659819
-0.00110981
0.000643738
-0.00128336
0.000602007
-0.00147197
0.00051804
-0.00166806
0.00036827
-0.00185048
0.000119133
-0.00195954
-0.000292818
-0.0018708
-0.000933326
-0.00144571
-0.00174867
-0.000737192
-0.00228799
-0.00013832
-0.00180226
-0.000455624
-4.36612e-05
0.000323138
-0.000126364
0.000591334
-0.000224379
0.000692203
-0.000328643
0.000728785
-0.00043752
0.000746754
-0.000552643
0.000762642
-0.000677305
0.000780633
-0.000816121
0.000800317
-0.000975122
0.000818821
-0.00116182
0.000830435
-0.00138504
0.000825231
-0.00165457
0.000787566
-0.00197759
0.000691288
-0.00233654
0.000478083
-0.00264936
2.00052e-05
-0.00268578
-0.000896903
-0.00222906
-0.00220539
-0.00135211
-0.00316495
-0.000418478
-0.00273589
-0.000874102
-4.10732e-05
0.000364211
-0.000121105
0.000671366
-0.000216429
0.000787527
-0.000317739
0.000830095
-0.000423569
0.000852583
-0.000536183
0.000875256
-0.000660044
0.000904494
-0.000801756
0.000942028
-0.000970744
0.000987809
-0.0011805
0.00104019
-0.00145043
0.00109516
-0.00180663
0.00114377
-0.00227462
0.00115928
-0.00283671
0.00104017
-0.00334067
0.000523968
-0.00351297
-0.0007246
-0.00313249
-0.00258587
-0.00226295
-0.0040345
-0.000989519
-0.00400932
-0.00186362
-3.82383e-05
0.000402449
-0.000115075
0.000748202
-0.000206549
0.000879001
-0.000302858
0.000926405
-0.000402423
0.000952148
-0.000507819
0.000980652
-0.000624217
0.00102089
-0.000759573
0.00107738
-0.00092592
0.00115416
-0.00114178
0.00125605
-0.00143568
0.00138906
-0.00184619
0.00155428
-0.00240211
0.00171519
-0.00306443
0.0017025
-0.00364179
0.00110133
-0.00387151
-0.000494882
-0.00367739
-0.00277999
-0.00302088
-0.00469101
-0.00165261
-0.00537759
-0.00351623
-3.56573e-05
0.000438107
-0.000109298
0.000821843
-0.000195998
0.0009657
-0.000285182
0.00101559
-0.000374853
0.00104182
-0.000467415
0.00107321
-0.000567902
0.00112138
-0.000684157
0.00119364
-0.000828285
0.00129828
-0.00101915
0.00144691
-0.00128509
0.00165501
-0.00166034
0.00192953
-0.00215612
0.00221097
-0.00270529
0.00225167
-0.00315771
0.00155375
-0.00336514
-0.000287455
-0.0033474
-0.00279773
-0.00297656
-0.00506184
-0.00188982
-0.00646434
-0.00540605
-3.43423e-05
0.000472449
-0.000105788
0.000893289
-0.000187289
0.0010472
-0.00026736
0.00109566
-0.000343536
0.001118
-0.000417612
0.00114729
-0.000493459
0.00119723
-0.000576814
0.00127699
-0.000676031
0.0013975
-0.000803001
0.00157388
-0.000972963
0.00182497
-0.00119853
0.0021551
-0.00147368
0.00248612
-0.00174839
0.00252638
-0.00197496
0.00178032
-0.00212401
-0.000138398
-0.00225026
-0.00267148
-0.00223626
-0.00507584
-0.00161126
-0.00708933
-0.00701731
-3.54537e-05
0.000507903
-0.000106962
0.000964798
-0.000183919
0.00112416
-0.000253908
0.00116565
-0.000313902
0.00117799
-0.000364949
0.00119834
-0.000409328
0.00124161
-0.000449437
0.0013171
-0.000487761
0.00143582
-0.000525933
0.00161205
-0.000562976
0.00186201
-0.000590886
0.00218301
-0.000601761
0.00249699
-0.000592434
0.00251705
-0.000612904
0.00180079
-0.000740425
-1.0877e-05
-0.00102185
-0.00239006
-0.00134325
-0.00475444
-0.00115944
-0.00727315
-0.00817674
-4.31597e-05
0.000551062
-0.000119633
0.00104127
-0.000192355
0.00119688
-0.000249927
0.00122322
-0.000291151
0.00121921
-0.000316917
0.0012241
-0.000327397
0.00125209
-0.000321776
0.00131148
-0.000297192
0.00141124
-0.000246541
0.0015614
-0.000155982
0.00177145
-7.101e-06
0.00203412
0.000203682
0.00228621
0.0004295
0.00229123
0.000556295
0.00167399
0.000429927
0.000115491
1.32604e-05
-0.0019734
-0.000626453
-0.00411473
-0.000807729
-0.00709187
-0.00898447
-5.3761e-05
0.000604823
-0.00013961
0.00112712
-0.000213702
0.00127097
-0.00026494
0.00127446
-0.000289854
0.00124413
-0.000290298
0.00122455
-0.000266773
0.00122856
-0.00021713
0.00126184
-0.000135811
0.00132992
-1.10943e-05
0.00143669
0.000170805
0.00158955
0.000430962
0.00177397
0.000777119
0.00194005
0.00114572
0.00192263
0.00136993
0.00144979
0.00124195
0.000243466
0.000709299
-0.00144074
-0.000109838
-0.00329559
-0.000521584
-0.00668013
-0.00950606
-0.000121603
0.000726426
-0.000221564
0.00122708
-0.00027881
0.00132822
-0.000301466
0.00129711
-0.000298061
0.00124072
-0.0002715
0.00119799
-0.000219494
0.00117655
-0.000136648
0.00117899
-1.51459e-05
0.00120842
0.000155424
0.00126612
0.000390476
0.0013545
0.000705066
0.00145938
0.00109657
0.00154855
0.00150646
0.00151274
0.00177123
0.00118502
0.00166697
0.000347724
0.00111138
-0.000885155
0.00021978
-0.00240399
-0.000301707
-0.00615864
-0.00980776
-7.8307e-05
0.000804733
-0.000244837
0.00139361
-0.000340922
0.0014243
-0.000373591
0.00132978
-0.000361116
0.00122825
-0.000314097
0.00115097
-0.000234882
0.00109734
-0.000120277
0.00106439
3.56541e-05
0.00105249
0.000242245
0.00105953
0.000509142
0.0010876
0.000844719
0.0011238
0.00123686
0.00115641
0.00163613
0.00111346
0.00190455
0.0009166
0.00182914
0.000423134
0.00134986
-0.000405876
0.000575921
-0.00163005
7.23871e-05
-0.0056551
-0.00973538
-0.000375021
0.00117975
-0.000421072
0.00143966
-0.000452476
0.00145571
-0.000470312
0.00134762
-0.000439731
0.00119767
-0.000367251
0.00107849
-0.000255919
0.000986008
-0.000103456
0.000911926
8.95396e-05
0.000859492
0.00032919
0.000819876
0.000615807
0.000800987
0.000952879
0.00078673
0.00132421
0.00078508
0.00168188
0.000755792
0.00195231
0.000646168
0.00198335
0.000392099
0.00182396
-0.000246489
0.00146974
-0.00127583
0.000833002
-0.00501836
-0.00890237
-0.001363
0.00254275
-0.00132133
0.001398
-0.00105363
0.001188
-0.000672766
0.000966759
-0.000272318
0.000797219
0.00013197
0.000674198
0.000529587
0.000588391
0.000920762
0.00052075
0.00130728
0.000472973
0.00169497
0.000432186
0.00208949
0.000406472
0.00249364
0.000382576
0.00291541
0.000363308
0.00333823
0.000332974
0.00373179
0.00025261
0.00400585
0.000118038
0.00408297
-0.000323604
0.0039433
-0.00113616
0.00250387
-0.00357894
-0.0063985
0.00254275
0.00394075
0.00512875
0.00609551
0.00689273
0.00756693
0.00815532
0.00867607
0.00914904
0.00958123
0.0099877
0.0103703
0.0107336
0.0110666
0.0113192
0.0114372
0.0111136
0.00997744
0.0063985
)
;

boundaryField
{
    movingWall
    {
        type            calculated;
        value           uniform 0;
    }
    fixedWalls
    {
        type            calculated;
        value           uniform 0;
    }
    frontAndBack
    {
        type            empty;
        value           nonuniform List<scalar> 0();
    }
}


// ************************************************************************* //
