/*--------------------------------*- C++ -*----------------------------------*\
  =========                 |
  \\      /  F ield         | OpenFOAM: The Open Source CFD Toolbox
   \\    /   O peration     | Website:  https://openfoam.org
    \\  /    A nd           | Version:  10
     \\/     M anipulation  |
\*---------------------------------------------------------------------------*/
FoamFile
{
    format      ascii;
    class       volVectorField;
    location    "8.3";
    object      U;
}
// * * * * * * * * * * * * * * * * * * * * * * * * * * * * * * * * * * * * * //

dimensions      [0 1 -1 0 0 0 0];

internalField   nonuniform List<vector> 
496
(
(9.9822 0.0704308 0)
(9.93944 -0.160276 0)
(10.1916 -0.140435 0)
(10.7491 -0.196852 0)
(10.0668 0.48323 0)
(9.82119 -1.22668 0)
(10.2668 -0.3659 0)
(10.8187 -1.12053 0)
(10.813 1.3622 0)
(9.08163 -2.88815 0)
(11.2092 -0.11502 0)
(10.6737 -4.01634 0)
(12.227 1.51011 0)
(7.95351 -2.54269 0)
(13.0347 0.711157 0)
(9.9213 -6.41259 0)
(11.4327 -0.225373 3.08348e-18)
(12.1433 -0.179702 -4.68182e-19)
(11.6511 -0.469294 -4.39952e-19)
(12.4652 0.112312 1.80623e-18)
(12.9598 -1.99034 -2.64724e-18)
(13.0029 -0.477142 -1.33771e-18)
(13.3739 -5.42562 -3.38111e-17)
(15.279 -4.2929 6.28437e-17)
(12.713 -0.166835 0)
(12.997 -0.16043 0)
(13.2091 -0.0531626 0)
(13.2222 -0.016806 0)
(13.0748 0.0886626 0)
(13.4461 -0.290555 0)
(13.7319 -0.521456 0)
(13.8039 -0.649292 0)
(12.5384 0.946019 0)
(12.6436 0.825656 0)
(12.9996 0.458902 0)
(13.4273 0.39877 0)
(11.3404 -2.87748 0)
(10.8642 -1.93628 0)
(8.00576 -0.91204 0)
(11.7215 -0.973116 0)
(13.3202 0.124418 0)
(13.2725 0.201166 0)
(13.3435 0.312378 0)
(13.2217 0.372187 0)
(13.2213 0.385663 0)
(13.0147 0.442982 0)
(12.9892 0.392542 0)
(12.7672 0.456739 0)
(12.7461 0.400343 0)
(12.5636 0.45301 0)
(12.5402 0.390518 0)
(12.4245 0.396772 0)
(12.4342 0.387514 0)
(12.4189 0.357923 0)
(12.3837 0.382399 0)
(12.3903 0.345368 0)
(12.2998 0.430625 0)
(12.2458 0.41068 0)
(11.99 0.48039 0)
(11.7856 0.486657 0)
(11.5124 0.559136 0)
(11.2893 0.537803 0)
(11.1072 0.506995 0)
(10.9386 0.404859 0)
(11.0027 0.333779 0)
(10.9849 0.252497 0)
(11.2437 0.206143 0)
(11.2471 0.190762 0)
(11.5349 0.183954 0)
(11.3705 0.240437 0)
(11.5193 0.280746 0)
(11.1472 0.369504 0)
(11.1493 0.368309 0)
(10.6648 0.433315 0)
(10.4476 0.386212 0)
(10.0556 0.436618 0)
(9.79314 0.335297 0)
(9.81255 0.283728 0)
(9.64219 0.174601 0)
(10.0164 0.0564619 0)
(13.955 -0.556497 0)
(13.9399 -0.482215 0)
(13.9717 -0.3355 0)
(13.8571 -0.278007 0)
(13.8029 -0.231783 0)
(13.6709 -0.162818 0)
(13.581 -0.212108 0)
(13.4959 -0.175556 0)
(13.3919 -0.262863 0)
(13.3249 -0.208646 0)
(13.2087 -0.301221 0)
(13.2155 -0.257404 0)
(13.1761 -0.294611 0)
(13.2147 -0.298551 0)
(13.204 -0.316019 0)
(13.2612 -0.282876 0)
(13.2674 -0.195142 0)
(13.1882 -0.108558 0)
(13.0868 -0.0386632 0)
(12.8917 -0.0201254 0)
(12.7621 -0.039088 0)
(12.4628 -0.147252 0)
(12.3278 -0.203656 0)
(12.0841 -0.31565 0)
(12.1917 -0.308403 0)
(12.1369 -0.441031 0)
(12.4237 -0.39921 0)
(12.4607 -0.417361 0)
(12.7911 -0.276889 0)
(12.812 -0.180147 0)
(13.0089 -0.0348563 0)
(12.8786 0.144524 0)
(12.8379 0.184045 0)
(12.6473 0.297271 0)
(12.3834 0.129715 0)
(12.2136 0.143363 0)
(11.7947 -0.106698 0)
(11.7995 -0.168186 0)
(11.4922 -0.351273 0)
(11.7396 -0.431622 0)
(13.6149 0.342265 0)
(13.7953 0.363025 0)
(13.6999 0.406788 0)
(13.732 0.421476 0)
(13.5282 0.443346 0)
(13.6464 0.633348 0)
(13.2801 0.553244 0)
(13.4326 0.653444 0)
(13.1344 0.466288 0)
(13.2398 0.572769 0)
(13.0155 0.431287 0)
(13.0369 0.436196 0)
(12.974 0.346345 0)
(12.8355 0.17176 0)
(13.0117 0.278045 0)
(12.8805 0.14396 0)
(13.2216 0.477588 0)
(12.9451 0.464347 0)
(13.1561 0.862801 0)
(12.6605 0.916771 0)
(12.7297 1.13686 0)
(12.1715 1.02595 0)
(12.3056 0.855867 0)
(11.9252 0.491672 0)
(12.0722 0.126399 0)
(11.8576 -0.18977 0)
(12.0583 -0.352095 0)
(12.1674 -0.343524 0)
(12.3243 -0.335819 0)
(12.609 -0.0741153 0)
(12.7155 -0.0106264 0)
(13.1094 0.457842 0)
(13.0676 0.512665 0)
(13.259 0.963146 0)
(12.9541 0.957221 0)
(12.8178 1.21987 0)
(12.4559 0.95515 0)
(12.2742 0.688261 0)
(12.1645 0.131399 0)
(11.9846 -0.419911 0)
(9.31392 -0.555801 0)
(10.7393 -0.248192 0)
(10.1978 -0.644662 0)
(9.79463 -0.229624 0)
(10.2469 -0.0925846 0)
(10.7025 -0.150477 0)
(10.008 0.0446235 0)
(10.5472 0.180093 0)
(10.1719 0.144583 0)
(10.8119 0.137337 0)
(10.355 0.038288 0)
(10.5499 -0.0483429 0)
(10.1991 -0.147657 0)
(10.1277 -0.191675 0)
(10.4253 -0.255664 0)
(10.0771 -0.304909 0)
(10.9947 -0.250065 0)
(10.5369 -0.222176 0)
(11.5263 -0.0422629 0)
(11.2489 0.0813831 0)
(12.0155 0.234866 0)
(11.5974 0.227973 0)
(11.6987 0.236371 0)
(11.0693 0.127455 0)
(10.6251 0.0916399 0)
(10.0738 -0.0233607 0)
(9.53705 -0.120306 0)
(9.52076 -0.296639 0)
(9.07426 -0.458594 0)
(9.75158 -0.468871 0)
(9.57124 -0.42163 0)
(10.7435 -0.225674 0)
(10.5247 -0.151472 0)
(11.7569 0.135495 0)
(11.7181 0.184102 0)
(12.4731 0.253932 0)
(12.424 0.25785 0)
(12.1907 0.112673 0)
(11.7741 0.17627 0)
(10.2779 0.101126 0)
(12.135 0.644504 -1.06997e-17)
(8.07247 -0.864544 -1.80375e-17)
(11.3534 0.116105 3.15633e-17)
(4.99766 -4.66318 -8.51263e-17)
(12.2167 -0.571044 1.06293e-17)
(7.99083 0.838991 1.79042e-17)
(11.5482 0.0697277 -3.13409e-17)
(4.91917 4.7236 8.44727e-17)
(2.99218 4.1223 0)
(-3.14952 -1.89233 0)
(6.97413 0.832946 0)
(-2.6255 2.64029 0)
(-9.34585 -2.23878 3.26015e-17)
(11.2327 -5.26101 0)
(-10.8339 -0.114782 0)
(5.15475 3.17487 0)
(-2.31955 -2.73261 0)
(1.90815 1.71427 0)
(-3.209 -1.10435 0)
(1.08809 -0.201337 0)
(0.675701 1.38731 0)
(-1.90019 0.337407 0)
(-0.437182 -0.187651 0)
(1.45656 0.0930608 0)
(0.691647 0.524368 0)
(1.42163 0.840325 0)
(1.02003 0.508118 0)
(0.884047 0.311144 0)
(1.28799 0.24043 0)
(1.90933 0.134461 0)
(1.75237 -0.0560185 0)
(2.3087 -0.0815651 0)
(2.92998 -0.0206755 0)
(2.84395 -0.0424123 0)
(3.14327 0.297915 0)
(3.67138 0.646925 0)
(3.43031 0.818099 0)
(3.4172 1.00486 0)
(3.40832 1.08594 0)
(3.26239 1.00696 0)
(3.15924 0.678359 0)
(3.30924 0.328109 0)
(3.48824 -0.0461126 0)
(3.57219 -0.399561 0)
(3.94132 -0.723579 0)
(3.99796 -0.828041 0)
(4.95379 -0.638339 0)
(4.72678 -0.616505 0)
(5.17379 -0.406859 0)
(5.85359 0.13319 0)
(5.09801 0.290079 0)
(5.92454 0.738526 0)
(4.97334 0.993528 0)
(5.09279 1.20778 0)
(4.53266 1.26141 0)
(4.37833 0.51209 0)
(0.241352 -0.28651 0)
(-0.586597 0.170881 0)
(1.40485 0.234897 0)
(-1.33213 -1.41392 0)
(-0.694117 1.43763 0)
(0.715905 0.199532 0)
(0.695338 -1.82932 0)
(-0.165333 -0.544113 0)
(-0.411632 -0.00140999 0)
(0.863059 -0.145431 0)
(0.547148 -0.122541 0)
(1.24952 -0.389334 0)
(1.29258 -0.695813 0)
(1.25132 -0.693133 0)
(1.17171 -0.678919 0)
(1.43339 -0.950543 0)
(1.61404 -0.831112 0)
(1.22268 -0.516833 0)
(1.72536 -0.266437 0)
(2.0799 -0.0177012 0)
(1.90592 0.384303 0)
(2.51058 0.558706 0)
(2.73909 0.535779 0)
(3.17767 0.46324 0)
(3.42476 0.201194 0)
(3.77694 -0.120725 0)
(3.93727 -0.498873 0)
(4.02935 -0.767866 0)
(3.64969 -0.870719 0)
(3.90663 -1.09931 0)
(3.56184 -1.06013 0)
(3.56239 -0.727127 0)
(3.22667 -0.493731 0)
(3.78234 -0.00234459 0)
(3.52765 0.337308 0)
(3.58071 0.740804 0)
(4.16601 0.902453 0)
(4.06735 1.01404 0)
(4.5865 1.12404 0)
(5.00207 0.322598 0)
(12.1223 -1.60201 0)
(8.10259 2.70288 0)
(12.9073 -0.837503 0)
(10.2314 6.63336 0)
(10.8419 -1.36417 0)
(9.09838 2.94202 0)
(11.1822 0.204755 0)
(10.8081 4.03581 0)
(10.0662 -0.496895 0)
(9.81164 1.24324 0)
(10.2371 0.36716 0)
(10.8426 1.08697 0)
(9.97144 -0.0749928 0)
(9.93399 0.172857 0)
(10.2167 0.123666 0)
(10.7752 0.216963 0)
(13.2223 5.40206 3.7484e-17)
(15.7472 4.44199 -6.62797e-17)
(12.9737 2.16909 0)
(13.2273 0.335037 0)
(11.6514 0.484717 0)
(12.5112 -0.236472 0)
(11.4728 0.226353 0)
(12.1699 0.182146 0)
(10.9621 2.76736 0)
(10.1494 1.60857 0)
(8.48121 2.0984 0)
(8.16759 0.357475 0)
(12.5356 -0.795404 0)
(12.6985 -1.2858 0)
(12.9211 -0.864672 0)
(13.2017 -0.425272 0)
(13.097 -0.117416 0)
(13.4802 0.170873 0)
(13.7515 0.615887 0)
(13.8195 0.712549 0)
(12.7372 0.190223 0)
(12.9916 0.150245 0)
(13.1642 0.0822616 0)
(13.1448 -0.065988 0)
(9.01767 -0.102921 0)
(9.914 0.0271784 0)
(9.3586 0.0414144 0)
(10.1025 0.0902841 0)
(9.52758 0.24472 0)
(9.01811 0.0941934 0)
(9.60016 -0.168683 0)
(9.76193 0.0365406 0)
(9.66096 0.0658378 0)
(9.26742 0.0854176 0)
(9.80218 0.105786 0)
(9.44145 0.0593176 0)
(10.0683 0.0246337 0)
(9.58511 -0.00774747 0)
(9.71748 -0.131615 0)
(9.45477 -0.119311 0)
(8.71139 -0.15725 0)
(8.80626 -0.112187 0)
(7.56561 -0.0867623 0)
(8.40614 -0.0399257 0)
(7.44224 0.186676 0)
(8.4233 0.272116 0)
(8.2466 0.358864 0)
(9.13955 0.277264 0)
(9.50566 0.182373 0)
(10.0083 0.0377285 0)
(10.511 -0.0848157 0)
(10.4553 -0.125161 0)
(10.5723 -0.157124 0)
(9.86348 -0.154995 0)
(9.64679 -0.237504 0)
(8.49235 -0.256294 0)
(8.36827 -0.221773 0)
(7.29537 -0.0980463 0)
(7.68981 0.0160919 0)
(7.29616 0.339169 0)
(7.72597 0.431216 0)
(8.50494 0.475296 0)
(8.60542 0.582755 0)
(9.92469 0.174393 0)
(13.6667 -0.192174 0)
(13.7092 -0.233138 0)
(13.9294 -0.222285 0)
(13.5791 -0.314855 0)
(13.7529 -0.332048 0)
(13.2614 -0.202214 0)
(13.497 -0.339603 0)
(13.2726 -0.317909 0)
(13.4241 -0.448857 0)
(13.2741 -0.318635 0)
(13.3165 -0.378003 0)
(13.3553 -0.40039 0)
(13.2154 -0.462586 0)
(13.2698 -0.563468 0)
(13.0291 -0.452484 0)
(13.17 -0.509274 0)
(12.9123 -0.213233 0)
(13.0014 -0.16274 0)
(12.7832 0.101804 0)
(12.892 0.0807415 0)
(12.9351 0.104964 0)
(13.0342 0.0195 0)
(13.2385 -0.145871 0)
(13.3674 -0.354341 0)
(13.5607 -0.614166 0)
(13.5042 -0.807117 0)
(13.5232 -0.951436 0)
(13.3462 -0.951573 0)
(13.3601 -0.884336 0)
(13.1748 -0.553235 0)
(13.2309 -0.388887 0)
(12.8839 0.135679 0)
(12.973 0.085877 0)
(12.4921 0.466129 0)
(12.7268 0.205524 0)
(12.4295 0.316697 0)
(12.7169 0.183786 0)
(12.7707 -0.0816753 0)
(13.0404 -0.115286 0)
(13.3787 -0.671344 0)
(13.8407 0.717658 0)
(13.8479 0.516175 0)
(13.8163 0.333643 0)
(13.8018 0.209722 0)
(13.7319 0.0868155 0)
(13.6438 0.139137 0)
(13.554 0.0869804 0)
(13.4911 0.146683 0)
(13.5121 0.0509697 0)
(13.4173 0.110573 0)
(13.4408 0.0665781 0)
(13.2751 0.0389431 0)
(13.3059 0.011476 0)
(13.0972 -0.0441588 0)
(13.1413 0.0442892 0)
(12.975 0.00772779 0)
(12.9936 0.125265 0)
(12.87 0.11957 0)
(12.9132 0.18978 0)
(12.9693 0.201732 0)
(13.0816 0.150899 0)
(13.2181 0.126444 0)
(13.2214 -0.0119169 0)
(13.2105 -0.0920236 0)
(13.0493 -0.202456 0)
(12.8986 -0.207878 0)
(12.6454 -0.103303 0)
(12.429 -0.0502978 0)
(12.1956 0.133061 0)
(12.0669 0.149421 0)
(12.0043 0.296059 0)
(12.0049 0.368375 0)
(12.1478 0.403711 0)
(12.1623 0.515663 0)
(12.4993 0.4018 0)
(12.451 0.473844 0)
(12.8796 0.238353 0)
(12.754 0.212673 0)
(13.0513 -0.0422817 0)
(12.7248 -0.214802 0)
(13.2019 -0.157363 0)
(13.169 -0.269784 0)
(13.2132 -0.338752 0)
(13.1785 -0.374596 0)
(13.169 -0.40558 0)
(13.0749 -0.363166 0)
(12.9591 -0.348216 0)
(12.8342 -0.288249 0)
(12.7746 -0.304753 0)
(12.6767 -0.269833 0)
(12.6041 -0.267888 0)
(12.4142 -0.259957 0)
(12.3543 -0.254664 0)
(12.1282 -0.273621 0)
(12.1268 -0.235346 0)
(11.9096 -0.260613 0)
(11.949 -0.203967 0)
(11.7402 -0.204011 0)
(11.8096 -0.147659 0)
(11.7432 -0.157469 0)
(11.8738 -0.151127 0)
(11.8425 -0.19198 0)
(11.8284 -0.249435 0)
(11.6731 -0.295449 0)
(11.5033 -0.349199 0)
(11.2153 -0.372272 0)
(10.9189 -0.411825 0)
(10.5996 -0.43288 0)
(10.3942 -0.428857 0)
(10.2759 -0.379893 0)
(10.2319 -0.321431 0)
(10.2793 -0.213421 0)
(10.3565 -0.210583 0)
(10.5054 -0.116753 0)
(10.7215 -0.172265 0)
(10.7944 -0.149382 0)
(11.1021 -0.206876 0)
(10.8639 -0.284504 0)
(11.1227 -0.320866 0)
(10.533 -0.411328 0)
)
;

boundaryField
{
    inlet
    {
        type            fixedValue;
        value           uniform (10 0 0);
    }
    outlet
    {
        type            zeroGradient;
    }
    obstacle
    {
        type            noSlip;
    }
    upperWall
    {
        type            noSlip;
    }
    lowerWall
    {
        type            noSlip;
    }
    frontAndBack
    {
        type            empty;
    }
}


// ************************************************************************* //
