/*--------------------------------*- C++ -*----------------------------------*\
  =========                 |
  \\      /  F ield         | OpenFOAM: The Open Source CFD Toolbox
   \\    /   O peration     | Website:  https://openfoam.org
    \\  /    A nd           | Version:  10
     \\/     M anipulation  |
\*---------------------------------------------------------------------------*/
FoamFile
{
    format      ascii;
    class       surfaceScalarField;
    location    "2.975";
    object      phi;
}
// * * * * * * * * * * * * * * * * * * * * * * * * * * * * * * * * * * * * * //

dimensions      [0 3 -1 0 0 0 0];

internalField   nonuniform List<scalar> 
890
(
0.00984269
0.000157306
0.00973946
0.000103238
0.00947533
0.000264124
0.00949376
-1.84229e-05
0.000111586
0.00938217
0.0101249
3.24489e-05
0.0101838
4.42492e-05
0.0104082
3.97881e-05
0.0104417
-5.19056e-05
-9.9396e-05
0.0106526
0.0100701
-3.76029e-05
0.0102108
-9.6467e-05
0.0103921
-0.00014152
0.0104996
-0.000159421
-0.000221024
0.0106212
0.0100857
-0.000123262
0.0102155
-0.000226296
0.0103283
-0.000254286
0.0104036
-0.000234808
-0.000270611
0.0104532
0.00987674
0.00965044
0.00939616
0.00916135
0.00889074
0.00920692
-0.000241936
0.000417185
0.00924756
-0.000276117
0.000235482
0.00943276
-0.000281004
9.58052e-05
0.00977017
-0.00036464
2.72287e-05
0.0101753
-0.000591777
0.000186603
0.0105421
-0.00106672
0.000699929
0.0108361
-0.00175669
0.00146269
0.0109416
-0.00247559
0.00237013
0.0107982
-0.00317332
0.00331675
0.0104469
-0.00361927
0.00397055
0.00980678
-0.00360094
0.00424105
0.00890895
-0.00326427
0.00416209
0.00792876
-0.00243518
0.00341537
0.00687094
-0.00120933
0.00226715
0.00586209
-0.000322626
0.00133147
0.00520046
-1.24246e-05
0.000674056
0.00501756
6.38618e-05
0.000119036
0.00514682
0.000194784
-0.000324046
0.00537389
0.000364885
-0.000591952
0.00557064
0.000471594
-0.000668342
0.00569953
0.000486487
-0.000615377
0.00576969
0.000434526
-0.000504681
0.0058028
0.000352098
-0.000385211
0.00581685
0.000266849
-0.000280897
0.00582263
0.000193163
-0.000198942
0.00582536
0.000135528
-0.000138263
0.00582713
9.31037e-05
-9.48731e-05
0.00582858
6.30327e-05
-6.4483e-05
0.00582984
4.22113e-05
-4.34717e-05
0.00583091
2.80065e-05
-2.90738e-05
0.00583178
1.84117e-05
-1.92784e-05
0.00583245
1.19819e-05
-1.2659e-05
0.00583297
7.70521e-06
-8.21842e-06
0.00583334
4.8841e-06
-5.26339e-06
0.00583362
3.04028e-06
-3.31369e-06
0.00583381
1.8498e-06
-2.04429e-06
0.00583395
1.08901e-06
-1.2244e-06
0.00583404
6.17869e-07
-7.10211e-07
0.0058341
3.25111e-07
-3.87477e-07
0.00583414
1.58827e-07
-1.99212e-07
0.00583417
6.03294e-08
-8.62817e-08
0.00583419
1.46269e-08
-3.23555e-08
0.0058342
-2.92001e-09
-7.4203e-09
0.0058342
-5.91975e-09
-1.79321e-09
1.72009e-08
-2.30542e-08
0.0106779
-0.000267191
0.0107369
-0.000335078
0.0108647
-0.000408849
0.0110797
-0.000579622
0.0112617
-0.000773747
0.0113263
-0.00113133
0.0112185
-0.00164896
0.0109036
-0.00216064
0.0103931
-0.00266284
0.0097262
-0.00295237
0.00882362
-0.00269836
0.00771659
-0.00215724
0.00672845
-0.00144704
0.00599882
-0.0004797
0.00540591
0.000270288
0.00494831
0.000445175
0.00470825
0.000303925
0.00470779
0.000195246
0.00486469
0.000207985
0.00507558
0.000260704
0.0052746
0.000287458
0.00543526
0.000273868
0.00555423
0.000233131
0.00563818
0.000182895
0.00569594
0.000135404
0.00573522
9.62533e-05
0.00576181
6.65089e-05
0.0057798
4.504e-05
0.00579197
3.00453e-05
0.00580018
1.97945e-05
0.00580571
1.28864e-05
0.00580941
8.28311e-06
0.00581187
5.24315e-06
0.0058135
3.25628e-06
0.00581456
1.97205e-06
0.00581526
1.15219e-06
0.00581571
6.3916e-07
0.005816
3.28535e-07
0.00581619
1.40837e-07
0.0058163
4.30755e-08
0.00581637
-1.10486e-08
0.00581642
-3.15219e-08
0.00581645
-3.10056e-08
0.00581647
-2.59441e-08
2.70294e-09
0.0106827
-0.00032872
0.0107165
-0.000368821
0.0107752
-0.000467577
0.0108182
-0.000622614
0.0108301
-0.000785621
0.0107369
-0.00103815
0.0104994
-0.00141145
0.0101866
-0.0018478
0.00966731
-0.0021436
0.00893028
-0.00221534
0.00814301
-0.00191108
0.0073251
-0.00133934
0.00665115
-0.000773084
0.0063619
-0.000190449
0.00633137
0.000300814
0.00625147
0.000525074
0.00601682
0.000538582
0.005738
0.000474064
0.00553545
0.000410528
0.00543996
0.000356198
0.00542631
0.000301104
0.0054572
0.000242986
0.00550398
0.000186346
0.00555037
0.000136504
0.00558945
9.63279e-05
0.00561966
6.6038e-05
0.00564189
4.42833e-05
0.00565775
2.91798e-05
0.00566886
1.8937e-05
0.00567655
1.21057e-05
0.00568183
7.60658e-06
0.00568543
4.68139e-06
0.00568787
2.79972e-06
0.00568952
1.61182e-06
0.00569061
8.7663e-07
0.00569134
4.28649e-07
0.0056918
1.7134e-07
0.0056921
2.86354e-08
0.00569229
-4.54329e-08
0.0056924
-7.0938e-08
0.00569247
-8.07233e-08
0.00569251
-7.23952e-08
0.00569254
-5.46283e-08
0.00569255
-4.25946e-08
-1.15119e-08
0.0104394
-0.000314923
0.0104184
-0.000347753
0.0103614
-0.000410629
0.0102105
-0.000471738
0.0100215
-0.000596565
0.00969507
-0.000711732
0.0091845
-0.000900892
0.00860577
-0.00126907
0.00784453
-0.00138235
0.00673175
-0.00110256
0.00553604
-0.000715374
0.0045409
-0.000344193
0.00384984
-8.20255e-05
0.00354731
0.000112076
0.00357305
0.000275072
0.00372749
0.000370634
0.00388879
0.000377283
0.00403686
0.000325998
0.0041893
0.000258088
0.00435
0.00019549
0.00450665
0.000144461
0.00464523
0.000104409
0.00475796
7.36079e-05
0.00484389
5.05756e-05
0.0049063
3.39157e-05
0.0049501
2.22449e-05
0.00498009
1.42927e-05
0.00500027
8.99311e-06
0.00501369
5.52537e-06
0.0050225
3.29324e-06
0.00502823
1.8799e-06
0.0050319
1.00522e-06
0.00503423
4.74443e-07
0.00503567
1.67136e-07
0.00503655
8.49316e-10
0.00503707
-9.16616e-08
0.00503736
-1.24594e-07
0.00503752
-1.31566e-07
0.0050376
-1.21304e-07
0.00503763
-1.02696e-07
0.00503764
-8.65026e-08
0.00503763
-6.6116e-08
0.00503762
-4.76461e-08
0.00503762
-3.53641e-08
-1.28196e-08
0.00857581
0.00822806
0.00781743
0.00734569
0.00674913
0.0060374
0.00513651
0.00386744
0.00248509
0.00138253
0.000667157
0.000322964
0.000240938
0.000353015
0.000628087
0.000998721
0.001376
0.001702
0.00196009
0.00215558
0.00230004
0.00240445
0.00247806
0.00252863
0.00256255
0.00258479
0.00259909
0.00260808
0.00261361
0.0026169
0.00261878
0.00261978
0.00262026
0.00262043
0.00262043
0.00262033
0.00262021
0.00262008
0.00261996
0.00261985
0.00261977
0.0026197
0.00261965
0.00261962
-0.000232517
0.000232517
-0.000702981
0.000470464
-0.00159917
0.00089619
-0.00276756
0.00116839
-0.00389118
0.00112362
-0.00471773
0.00082655
-0.00508056
0.000362829
-0.00488504
-0.000195512
-0.00417806
-0.000706985
-0.0030168
-0.00116126
-0.00154207
-0.00147473
3.56458e-05
-0.00157771
0.00148477
-0.00144912
0.00259944
-0.00111468
0.00329037
-0.000690928
0.00359315
-0.000302774
0.00361783
-2.46803e-05
0.0034951
0.000122723
0.00331571
0.000179394
0.00313745
0.000178263
0.00298633
0.000151113
0.00286932
0.000117012
0.00278414
8.51843e-05
0.00272487
5.92644e-05
0.00268505
3.98199e-05
0.00265905
2.60067e-05
0.00264248
1.65669e-05
0.00263217
1.03064e-05
0.00262592
6.25171e-06
0.00262224
3.67679e-06
0.00262017
2.07291e-06
0.00261908
1.09244e-06
0.00261857
5.11905e-07
0.00261839
1.77978e-07
0.00261839
5.56648e-10
0.00261848
-9.00896e-08
0.00261861
-1.2821e-07
0.00261874
-1.30675e-07
0.00261886
-1.21826e-07
0.00261897
-1.06286e-07
0.00261905
-8.54922e-08
0.00261912
-6.7585e-08
0.00261917
-4.92769e-08
0.0026192
-3.4342e-08
-1.2133e-08
-0.000558044
0.000790561
-0.00128239
0.00119481
-0.0020939
0.0017077
-0.00283725
0.00191174
-0.00340538
0.00169174
-0.00372097
0.00114214
-0.00368902
0.000330883
-0.00327851
-0.000606023
-0.00246408
-0.00152142
-0.00129899
-0.00232635
0.00011399
-0.00288771
0.00160714
-0.00307087
0.00300898
-0.00285096
0.00418144
-0.00228713
0.0050131
-0.00152258
0.00547781
-0.000767488
0.00566208
-0.000208948
0.00567453
0.000110276
0.00560976
0.000244157
0.00551692
0.00027111
0.00541982
0.000248211
0.00533065
0.000206183
0.00525498
0.000160848
0.00519431
0.000119938
0.00514776
8.63651e-05
0.00511333
6.04429e-05
0.00508861
4.12853e-05
0.00507131
2.76089e-05
0.00505945
1.8111e-05
0.00505147
1.16547e-05
0.00504619
7.35048e-06
0.00504276
4.52652e-06
0.00504056
2.70865e-06
0.00503918
1.55666e-06
0.00503834
8.4181e-07
0.00503784
4.13082e-07
0.00503755
1.58044e-07
0.0050374
2.30519e-08
0.00503732
-4.66557e-08
0.0050373
-7.78523e-08
0.00503729
-8.13781e-08
0.0050373
-7.24583e-08
0.0050373
-5.76765e-08
0.00503731
-4.21714e-08
-1.04559e-08
-0.000197047
0.000987608
-0.000257101
0.00125487
-0.000361498
0.0018121
-0.000411539
0.00196178
-0.000359162
0.00163937
-0.000190901
0.000973878
0.000114437
2.55447e-05
0.00066166
-0.00115325
0.00141302
-0.00227278
0.00225643
-0.00316976
0.00319067
-0.00382195
0.0041545
-0.0040347
0.00496697
-0.00366344
0.00561663
-0.00293679
0.00612009
-0.00202604
0.00641175
-0.00105915
0.00647427
-0.000271473
0.00638707
0.000197476
0.00625334
0.000377895
0.00612826
0.000396184
0.00602742
0.000349051
0.00594864
0.000284964
0.00588647
0.000223018
0.00583711
0.000169294
0.00579833
0.000125145
0.00576851
9.02686e-05
0.00574613
6.36623e-05
0.00572974
4.39977e-05
0.00571799
2.98593e-05
0.00570972
1.99274e-05
0.00570398
1.30875e-05
0.00570006
8.45375e-06
0.0056974
5.36416e-06
0.00569562
3.3327e-06
0.00569445
2.01489e-06
0.00569369
1.17875e-06
0.00569319
6.51571e-07
0.00569288
3.34771e-07
0.00569269
1.46103e-07
0.00569257
4.19757e-08
0.0056925
-1.09047e-08
0.00569246
-3.02093e-08
0.00569243
-3.25853e-08
0.00569241
-2.58662e-08
3.58732e-09
0.000355726
0.000631881
0.000993579
0.000617013
0.00166296
0.00114271
0.00237892
0.00124583
0.00303576
0.000982517
0.00365917
0.000350476
0.00428789
-0.000603175
0.00488066
-0.00174602
0.00549706
-0.00288918
0.00606293
-0.00373562
0.00653233
-0.00429135
0.00692429
-0.00442665
0.00710525
-0.0038444
0.00705932
-0.00289086
0.0069869
-0.00195362
0.00697153
-0.00104378
0.00693191
-0.000231855
0.00679577
0.000333618
0.00659381
0.000579851
0.00638763
0.000602368
0.00621749
0.000519189
0.00609297
0.000409483
0.00600682
0.00030917
0.00594818
0.000227932
0.00590808
0.000165242
0.00588033
0.000118026
0.0058609
8.30926e-05
0.00584722
5.76767e-05
0.00583759
3.9487e-05
0.00583084
2.66717e-05
0.00582616
1.77754e-05
0.00582293
1.16831e-05
0.00582072
7.56632e-06
0.00581924
4.81993e-06
0.00581824
3.00928e-06
0.00581759
1.83591e-06
0.00581715
1.08267e-06
0.00581687
6.14591e-07
0.0058167
3.24822e-07
0.00581658
1.57206e-07
0.00581651
5.94352e-08
0.00581647
1.50172e-08
0.00581644
-3.70095e-09
0.00581642
-6.09544e-09
1.76111e-08
0.00104907
0.00190156
0.00314008
0.00441314
0.00558226
0.00663266
0.00749217
0.00811628
0.00854386
0.00877878
0.00872848
0.00846392
0.00803489
0.00741118
0.00678903
0.00641931
0.00630649
0.00631606
0.00630396
0.00623799
0.0061418
0.0060466
0.00597056
0.0059176
0.0058839
0.00586366
0.00585188
0.00584507
0.00584109
0.00583869
0.00583718
0.00583621
0.00583556
0.00583511
0.00583481
0.0058346
0.00583446
0.00583436
0.0058343
0.00583426
0.00583423
0.00583421
0.0058342
0.00583419
)
;

boundaryField
{
    inlet
    {
        type            calculated;
        value           nonuniform List<scalar> 5(-0.01 -0.01 -0.01 -0.01 -0.01);
    }
    outlet
    {
        type            calculated;
        value           nonuniform List<scalar> 10(0.00583421 0.00581648 0.00569257 0.00503762 0.00261961 0.00261921 0.00503731 0.0056924 0.0058164 0.00583419);
    }
    upperWall
    {
        type            calculated;
        value           uniform 0;
    }
    lowerWall
    {
        type            calculated;
        value           uniform 0;
    }
    frontAndBack
    {
        type            empty;
        value           nonuniform List<scalar> 0();
    }
}


// ************************************************************************* //
