/*--------------------------------*- C++ -*----------------------------------*\
  =========                 |
  \\      /  F ield         | OpenFOAM: The Open Source CFD Toolbox
   \\    /   O peration     | Website:  https://openfoam.org
    \\  /    A nd           | Version:  10
     \\/     M anipulation  |
\*---------------------------------------------------------------------------*/
FoamFile
{
    format      ascii;
    class       volScalarField;
    location    "1.275";
    object      p;
}
// * * * * * * * * * * * * * * * * * * * * * * * * * * * * * * * * * * * * * //

dimensions      [0 2 -2 0 0 0 0];

internalField   nonuniform List<scalar> 
400
(
2.30313e-09
2.11375e-05
0.000125686
0.000295397
0.00052794
0.000818184
0.00115947
0.00154385
0.00196217
0.00240418
0.00285869
0.00331375
0.00375686
0.00417534
0.00455658
0.00488857
0.0051603
0.00536248
0.0054895
0.00552006
-2.1939e-05
-1.34454e-06
0.000103884
0.000274287
0.000507869
0.000799605
0.00114288
0.00152978
0.00195117
0.00239676
0.00285531
0.00331485
0.00376272
0.00418607
0.0045721
0.00490855
0.00518414
0.00538937
0.00551871
0.00554935
-0.000128312
-0.000108038
4.72602e-07
0.00017636
0.000417681
0.00071932
0.00107454
0.00147529
0.00191221
0.00237483
0.00285169
0.00333029
0.00379759
0.00424018
0.0046446
0.00499782
0.00528772
0.00550398
0.00564048
0.00567237
-0.000308307
-0.000287683
-0.000173471
1.18699e-05
0.000266424
0.000584904
0.000960347
0.00138441
0.00184744
0.00233856
0.00284581
0.00335622
0.00385593
0.00433065
0.00476582
0.00514714
0.00546111
0.00569599
0.00584464
0.00587958
-0.00056637
-0.000545005
-0.000422578
-0.000223661
4.98412e-05
0.000392377
0.000796641
0.0012539
0.00175403
0.00228565
0.00283615
0.00339187
0.0039379
0.00445873
0.00493827
0.0053604
0.00570954
0.00597183
0.00613849
0.00617828
-0.000908902
-0.000886539
-0.00075326
-0.000536438
-0.000237979
0.000136195
0.000578317
0.00107913
0.00162795
0.00221274
0.00282017
0.00343572
0.00404326
0.00462572
0.00516505
0.00564269
0.00604016
0.00634047
0.00653236
0.00657926
-0.00134407
-0.00132056
-0.00117363
-0.000934313
-0.000604521
-0.000190675
0.000298858
0.000854174
0.00146391
0.00211531
0.00279424
0.00348533
0.00417108
0.00483263
0.00544956
0.00600014
0.00646199
0.00681367
0.0070401
0.00709715
-0.00188231
-0.00185766
-0.00169406
-0.00142729
-0.00105929
-0.000597133
-4.99792e-05
0.000571477
0.00125509
0.00198736
0.00275337
0.00353698
0.00431939
0.00507985
0.00579521
0.00643988
0.0069863
0.00740672
0.00768019
0.00775185
-0.00253669
-0.00251107
-0.00232748
-0.00202779
-0.001614
-0.00109411
-0.000478295
0.000221757
0.000993023
0.00182124
0.00269084
0.0035852
0.0044845
0.00536635
0.00620472
0.00696948
0.00762645
0.008139
0.00847702
0.00857022
-0.0033233
-0.00329714
-0.00308981
-0.002751
-0.00228287
-0.00169474
-0.000998156
-0.000206087
0.000667421
0.00160741
0.00259785
0.00362217
0.00466014
0.00568853
0.00667881
0.00759592
0.00839747
0.0090346
0.00946262
0.00958899
-0.00426216
-0.00423613
-0.00400067
-0.00361541
-0.003083
-0.00241457
-0.00162366
-0.000724964
0.000266223
0.00133435
0.00246338
0.00363701
0.00483634
0.00603858
0.00721413
0.00832349
0.00931469
0.0101227
0.0106789
0.0108595
-0.00537838
-0.00535325
-0.00508437
-0.00464362
-0.00403478
-0.00327172
-0.00237085
-0.00134934
-0.000224175
0.00098858
0.00227389
0.003615
0.00499801
0.00640238
0.00780011
0.00915007
0.0103907
0.0114371
0.0121803
0.0124564
-0.00670456
-0.00668045
-0.00637159
-0.00586343
-0.00516268
-0.00428705
-0.00325729
-0.00209444
-0.000818033
0.000555066
0.00201074
0.00353694
0.00512353
0.00675654
0.00841457
0.0100606
0.0116286
0.0130135
0.0140365
0.0144925
-0.008287
-0.00826003
-0.0079022
-0.00730978
-0.00649618
-0.00548394
-0.004301
-0.00297457
-0.00152815
2.03121e-05
0.0016588
0.00338067
0.00518393
0.00706511
0.00901691
0.0110175
0.0130072
0.0148827
0.016335
0.0171426
-0.0101702
-0.0101403
-0.00972727
-0.00902753
-0.00807111
-0.00688783
-0.00551896
-0.00400122
-0.0023636
-0.000625765
0.00120261
0.00312172
0.00514337
0.00727703
0.00953969
0.0119454
0.01446
0.0170453
0.0191497
0.0207252
-0.0126185
-0.0124414
-0.0119384
-0.011081
-0.00993233
-0.00852568
-0.00692497
-0.00517984
-0.00332622
-0.00138599
0.000632863
0.0027356
0.00496258
0.00732645
0.00987738
0.0127012
0.0158038
0.019378
0.0224026
0.0257068
-0.0149967
-0.0151019
-0.0145748
-0.0135407
-0.0121307
-0.0104211
-0.00852362
-0.00650393
-0.00440476
-0.00225061
-4.6512e-05
0.00219273
0.00460802
0.00713268
0.00984626
0.0130008
0.016502
0.0214994
0.025576
0.0328555
-0.0206234
-0.0184776
-0.0179433
-0.0164475
-0.0146519
-0.0125496
-0.0102816
-0.00793063
-0.00555207
-0.00317456
-0.000767251
0.00171361
0.00420272
0.00684644
0.0096844
0.0133015
0.0173416
0.024131
0.0300375
0.0427535
-0.0231697
-0.0244435
-0.0230858
-0.0211338
-0.0184554
-0.0154361
-0.0124422
-0.00956298
-0.00680288
-0.00419826
-0.00162559
0.000879916
0.00330141
0.00588262
0.00733267
0.011421
0.0117234
0.0217398
0.0222815
0.0524067
-0.0471299
-0.0244103
-0.0240882
-0.0217637
-0.0187405
-0.0157611
-0.0128552
-0.00998805
-0.0072073
-0.00454212
-0.00195986
0.000559535
0.00299679
0.00555162
0.00795287
0.0120193
0.0165372
0.0305711
0.051208
0.109511
)
;

boundaryField
{
    movingWall
    {
        type            zeroGradient;
    }
    fixedWalls
    {
        type            zeroGradient;
    }
    frontAndBack
    {
        type            empty;
    }
}


// ************************************************************************* //
