/*--------------------------------*- C++ -*----------------------------------*\
  =========                 |
  \\      /  F ield         | OpenFOAM: The Open Source CFD Toolbox
   \\    /   O peration     | Website:  https://openfoam.org
    \\  /    A nd           | Version:  10
     \\/     M anipulation  |
\*---------------------------------------------------------------------------*/
FoamFile
{
    format      ascii;
    class       volVectorField;
    location    "1.275";
    object      U;
}
// * * * * * * * * * * * * * * * * * * * * * * * * * * * * * * * * * * * * * //

dimensions      [0 1 -1 0 0 0 0];

internalField   nonuniform List<vector> 
400
(
(-0.000318175 0.000313621 0)
(-0.0010964 0.00039773 0)
(-0.00197726 0.000387064 0)
(-0.00278898 0.000359748 0)
(-0.00353115 0.000323275 0)
(-0.00418508 0.000278956 0)
(-0.00473473 0.000227868 0)
(-0.00516682 0.000171155 0)
(-0.00547062 0.000110009 0)
(-0.00563805 4.56689e-05 0)
(-0.00566375 -2.05509e-05 0)
(-0.00554521 -8.73306e-05 0)
(-0.00528299 -0.000153125 0)
(-0.004881 -0.000216295 0)
(-0.00434682 -0.000275063 0)
(-0.00369193 -0.000327547 0)
(-0.0029322 -0.000371825 0)
(-0.00208802 -0.00040568 0)
(-0.00116324 -0.000420425 0)
(-0.000339394 -0.000334271 0)
(-0.000418535 0.00110122 0)
(-0.00142087 0.00137441 0)
(-0.00254029 0.00133621 0)
(-0.00357299 0.00124114 0)
(-0.00451614 0.00111417 0)
(-0.00534591 0.000960127 0)
(-0.00604209 0.000782937 0)
(-0.00658814 0.000586678 0)
(-0.00697085 0.000375532 0)
(-0.0071804 0.000153759 0)
(-0.00721041 -7.43066e-05 0)
(-0.00705797 -0.000303811 0)
(-0.00672388 -0.000529756 0)
(-0.00621316 -0.000746619 0)
(-0.00553529 -0.000948367 0)
(-0.00470462 -0.00112858 0)
(-0.00374109 -0.00128063 0)
(-0.00267042 -0.00139675 0)
(-0.00149951 -0.00144798 0)
(-0.000443535 -0.00116815 0)
(-0.000444884 0.00205122 0)
(-0.0015104 0.00253701 0)
(-0.00269949 0.00246452 0)
(-0.00379502 0.00228801 0)
(-0.00479471 0.00205258 0)
(-0.00567356 0.00176745 0)
(-0.00641067 0.00144011 0)
(-0.00698904 0.0010782 0)
(-0.00739523 0.000689452 0)
(-0.00761925 0.000281609 0)
(-0.00765421 -0.000137441 0)
(-0.00749679 -0.000559193 0)
(-0.00714752 -0.000974603 0)
(-0.0066108 -0.0013737 0)
(-0.00589565 -0.00174552 0)
(-0.00501632 -0.00207821 0)
(-0.00399316 -0.00235941 0)
(-0.0028532 -0.00257444 0)
(-0.00160336 -0.00267088 0)
(-0.000474406 -0.00217316 0)
(-0.000475378 0.0030342 0)
(-0.00161455 0.00374267 0)
(-0.00288549 0.00363343 0)
(-0.00405473 0.0033715 0)
(-0.00512041 0.00302304 0)
(-0.00605635 0.00260202 0)
(-0.00684108 0.00211976 0)
(-0.00745745 0.00158758 0)
(-0.00789198 0.0010167 0)
(-0.00813456 0.000418197 0)
(-0.00817804 -0.000196672 0)
(-0.00801838 -0.000816303 0)
(-0.00765504 -0.00142772 0)
(-0.00709128 -0.00201665 0)
(-0.00633494 -0.00256707 0)
(-0.00539945 -0.00306138 0)
(-0.00430514 -0.00348078 0)
(-0.00308037 -0.00380278 0)
(-0.00173266 -0.00394956 0)
(-0.000512837 -0.00322291 0)
(-0.000518039 0.0040938 0)
(-0.00175948 0.00504266 0)
(-0.00314341 0.00489222 0)
(-0.00441404 0.00453652 0)
(-0.00556986 0.00406503 0)
(-0.00658324 0.00349728 0)
(-0.00743222 0.00284898 0)
(-0.00809974 0.00213544 0)
(-0.00857257 0.0013714 0)
(-0.00884069 0.000571053 0)
(-0.0088967 -0.000251549 0)
(-0.00873555 -0.00108184 0)
(-0.00835512 -0.00190348 0)
(-0.00775677 -0.00269808 0)
(-0.00694623 -0.00344443 0)
(-0.00593524 -0.00411849 0)
(-0.00474356 -0.00469379 0)
(-0.00340103 -0.00513815 0)
(-0.0019161 -0.00534449 0)
(-0.00056768 -0.00436961 0)
(-0.000574841 0.00525948 0)
(-0.00195187 0.00647214 0)
(-0.00348467 0.00627376 0)
(-0.00488777 0.00581216 0)
(-0.00616021 0.00520329 0)
(-0.00727276 0.00447358 0)
(-0.0082033 0.00364401 0)
(-0.00893543 0.0027343 0)
(-0.00945679 0.00176271 0)
(-0.00975793 0.00074613 0)
(-0.00983134 -0.000299173 0)
(-0.0096707 -0.00135659 0)
(-0.00927165 -0.00240712 0)
(-0.00863256 -0.00342869 0)
(-0.00775566 -0.00439487 0)
(-0.00664943 -0.00527435 0)
(-0.00533186 -0.00603127 0)
(-0.00383393 -0.00662086 0)
(-0.00216518 -0.006901 0)
(-0.000642503 -0.00565254 0)
(-0.000648113 0.00656302 0)
(-0.0021993 0.00806906 0)
(-0.00392181 0.00781272 0)
(-0.00549163 0.00722808 0)
(-0.00690879 0.00646217 0)
(-0.00814256 0.00555025 0)
(-0.00917153 0.00451984 0)
(-0.00998107 0.00339566 0)
(-0.0105608 0.00219936 0)
(-0.0109026 0.00094992 0)
(-0.0109994 -0.000335281 0)
(-0.0108435 -0.00163896 0)
(-0.0104272 -0.00294077 0)
(-0.00974453 -0.00421592 0)
(-0.00879193 -0.00543301 0)
(-0.00757216 -0.00655271 0)
(-0.00609899 -0.00752743 0)
(-0.00440331 -0.00829558 0)
(-0.00249531 -0.00867135 0)
(-0.000742259 -0.0071175 0)
(-0.000741299 0.00804234 0)
(-0.00251271 0.00987812 0)
(-0.00447243 0.00954874 0)
(-0.00624706 0.00881695 0)
(-0.00783846 0.00786716 0)
(-0.00921511 0.00674648 0)
(-0.0103579 0.00549069 0)
(-0.0112559 0.00413021 0)
(-0.0119026 0.00268985 0)
(-0.0122926 0.00118958 0)
(-0.0124202 -0.000353753 0)
(-0.0122762 -0.00192433 0)
(-0.0118486 -0.0035027 0)
(-0.0111248 -0.00506321 0)
(-0.0100925 -0.00657051 0)
(-0.0087445 -0.00797672 0)
(-0.00708603 -0.00921972 0)
(-0.00514472 -0.0102151 0)
(-0.00292993 -0.0107203 0)
(-0.000874713 -0.00882294 0)
(-0.000859622 0.00974379 0)
(-0.00290819 0.0119528 0)
(-0.00516164 0.0115274 0)
(-0.00718373 0.0106142 0)
(-0.00897975 0.00944391 0)
(-0.0105191 0.0080798 0)
(-0.0117878 0.00656834 0)
(-0.0127819 0.00494642 0)
(-0.0135014 0.00324142 0)
(-0.0139462 0.00147263 0)
(-0.0141134 -0.000346108 0)
(-0.0139925 -0.00220362 0)
(-0.0135661 -0.00408487 0)
(-0.0128123 -0.00596684 0)
(-0.0117055 -0.00781256 0)
(-0.0102222 -0.00956602 0)
(-0.00835154 -0.0111477 0)
(-0.00611113 -0.012442 0)
(-0.00350556 -0.0131302 0)
(-0.00105248 -0.0108463 0)
(-0.0010113 0.0117264 0)
(-0.00341002 0.0143589 0)
(-0.00602591 0.013802 0)
(-0.00834309 0.0126578 0)
(-0.0103734 0.0112167 0)
(-0.0120908 0.00956393 0)
(-0.0134913 0.00775983 0)
(-0.0145829 0.00584845 0)
(-0.0153764 0.00385859 0)
(-0.0158802 0.00180632 0)
(-0.0160965 -0.000301108 0)
(-0.016015 -0.00246167 0)
(-0.0156118 -0.00466995 0)
(-0.0148525 -0.00691136 0)
(-0.0136917 -0.00915255 0)
(-0.0120807 -0.0113318 0)
(-0.00997976 -0.0133503 0)
(-0.00738294 -0.015051 0)
(-0.00428115 -0.0160084 0)
(-0.0012971 -0.0132958 0)
(-0.00120989 0.0140689 0)
(-0.00405605 0.01718 0)
(-0.00711914 0.0164355 0)
(-0.0097838 0.0149875 0)
(-0.0120743 0.0132056 0)
(-0.013976 0.0112051 0)
(-0.0155034 0.00906361 0)
(-0.0166833 0.00683276 0)
(-0.0175436 0.00454067 0)
(-0.018106 0.00219633 0)
(-0.0183814 -0.000204509 0)
(-0.0183614 -0.0026754 0)
(-0.0180158 -0.00522747 0)
(-0.017295 -0.00786342 0)
(-0.016126 -0.0105632 0)
(-0.0144213 -0.0132676 0)
(-0.0120929 -0.0158593 0)
(-0.00908478 -0.0181297 0)
(-0.00535585 -0.0194987 0)
(-0.00164771 -0.0163312 0)
(-0.00147906 0.0168817 0)
(-0.00490741 0.0205247 0)
(-0.00852267 0.0195024 0)
(-0.0115901 0.0176422 0)
(-0.0141567 0.0154215 0)
(-0.0162329 0.0129958 0)
(-0.0178638 0.0104636 0)
(-0.019106 0.00788329 0)
(-0.0200129 0.00527824 0)
(-0.0206254 0.00264444 0)
(-0.0209683 -4.1514e-05 0)
(-0.021038 -0.00281226 0)
(-0.0207999 -0.00570916 0)
(-0.0201883 -0.00876363 0)
(-0.019096 -0.0119841 0)
(-0.0173784 -0.0153318 0)
(-0.0148699 -0.018684 0)
(-0.0114139 -0.0217753 0)
(-0.00690448 -0.023795 0)
(-0.00218029 -0.0202035 0)
(-0.00186255 0.0203309 0)
(-0.00606686 0.0245381 0)
(-0.0103616 0.0230906 0)
(-0.0138845 0.0206535 0)
(-0.0167218 0.0178566 0)
(-0.0189342 0.0149052 0)
(-0.020616 0.0119216 0)
(-0.0218688 0.00896562 0)
(-0.0227826 0.00604875 0)
(-0.0234259 0.00314666 0)
(-0.0238382 0.000208759 0)
(-0.0240291 -0.00282745 0)
(-0.0239673 -0.00604321 0)
(-0.02357 -0.00951529 0)
(-0.0226943 -0.0133038 0)
(-0.0211232 -0.0174213 0)
(-0.0185723 -0.0217779 0)
(-0.0146885 -0.0260813 0)
(-0.00924965 -0.0291556 0)
(-0.0030514 -0.0253348 0)
(-0.00244696 0.0246478 0)
(-0.0077161 0.0294016 0)
(-0.0128319 0.0272965 0)
(-0.016847 0.0240327 0)
(-0.0199063 0.0204688 0)
(-0.0221682 0.016867 0)
(-0.0238036 0.0133674 0)
(-0.024979 0.0100193 0)
(-0.025832 0.00681047 0)
(-0.0264655 0.00368684 0)
(-0.0269425 0.000563619 0)
(-0.0272901 -0.00266632 0)
(-0.0274879 -0.00613083 0)
(-0.0274489 -0.00997171 0)
(-0.0270021 -0.014333 0)
(-0.0258553 -0.01933 0)
(-0.0235761 -0.0249767 0)
(-0.0194274 -0.0310783 0)
(-0.0130147 -0.0358579 0)
(-0.00460733 -0.0325421 0)
(-0.00338593 0.0305238 0)
(-0.0101515 0.0354548 0)
(-0.0162297 0.0322422 0)
(-0.0207387 0.0277467 0)
(-0.0238891 0.023159 0)
(-0.0260361 0.0187591 0)
(-0.027464 0.0146834 0)
(-0.0284257 0.0109467 0)
(-0.0291148 0.00749459 0)
(-0.0296724 0.00423023 0)
(-0.030191 0.00102707 0)
(-0.0307232 -0.00226995 0)
(-0.0312723 -0.00584754 0)
(-0.0317716 -0.00992686 0)
(-0.0320518 -0.0147705 0)
(-0.0317694 -0.0206696 0)
(-0.0303778 -0.0278558 0)
(-0.0264258 -0.0365467 0)
(-0.0195132 -0.044006 0)
(-0.00774635 -0.0433415 0)
(-0.00528045 0.0367008 0)
(-0.0143023 0.0423568 0)
(-0.0211221 0.0378004 0)
(-0.025961 0.0316318 0)
(-0.0288938 0.0257205 0)
(-0.0306413 0.0203703 0)
(-0.0316114 0.0156843 0)
(-0.0321613 0.0116018 0)
(-0.0325404 0.0079987 0)
(-0.0329233 0.00471991 0)
(-0.0334314 0.00159071 0)
(-0.0341517 -0.00158543 0)
(-0.0351296 -0.00505599 0)
(-0.0363538 -0.00911424 0)
(-0.037722 -0.0141619 0)
(-0.0389148 -0.0207849 0)
(-0.039474 -0.0295513 0)
(-0.0367345 -0.0420186 0)
(-0.0312191 -0.0534794 0)
(-0.0143971 -0.060855 0)
(-0.00702803 0.0533515 0)
(-0.0190198 0.0523049 0)
(-0.0276047 0.0446483 0)
(-0.0328443 0.0355 0)
(-0.0350974 0.0277772 0)
(-0.0359816 0.021339 0)
(-0.0361085 0.0160758 0)
(-0.0359588 0.0117642 0)
(-0.0358192 0.00816613 0)
(-0.0358799 0.00505014 0)
(-0.0362734 0.0021894 0)
(-0.0371228 -0.000655094 0)
(-0.038525 -0.00373037 0)
(-0.0405609 -0.00744628 0)
(-0.0433397 -0.0123814 0)
(-0.0466652 -0.0196723 0)
(-0.0509287 -0.0301606 0)
(-0.0509419 -0.0479771 0)
(-0.0510914 -0.066031 0)
(-0.0260831 -0.0912773 0)
(-0.0178317 0.0558139 0)
(-0.0370074 0.0637705 0)
(-0.0382379 0.0518249 0)
(-0.0420841 0.0396817 0)
(-0.041575 0.0296155 0)
(-0.0403044 0.0217383 0)
(-0.0387071 0.0158298 0)
(-0.0372496 0.0113845 0)
(-0.0361604 0.00795453 0)
(-0.0355771 0.00520282 0)
(-0.0356052 0.00286385 0)
(-0.0363292 0.000707015 0)
(-0.0379406 -0.00144937 0)
(-0.0407034 -0.00399064 0)
(-0.0451554 -0.00691124 0)
(-0.0509506 -0.0125851 0)
(-0.0601854 -0.0189409 0)
(-0.0625736 -0.042237 0)
(-0.0717401 -0.0634765 0)
(-0.0287086 -0.136823 0)
(-0.0519762 0.124131 0)
(-0.0481991 0.0625776 0)
(-0.0418979 0.0488539 0)
(-0.0331281 0.0339109 0)
(-0.023478 0.0231477 0)
(-0.0156348 0.0163342 0)
(-0.00933305 0.0117154 0)
(-0.00459111 0.00839581 0)
(-0.00118983 0.00595215 0)
(0.00108359 0.00410026 0)
(0.00236648 0.00263479 0)
(0.00276767 0.00139012 0)
(0.00217493 0.000199529 0)
(0.00113043 -0.00132634 0)
(-0.00204167 -0.00355125 0)
(-0.00240885 -0.00929122 0)
(-0.0134802 -0.0201979 0)
(-0.0024736 -0.0527512 0)
(-0.0370364 -0.108228 0)
(0.0176899 -0.221077 0)
(0.131741 0.127461 0)
(0.153179 0.0652474 0)
(0.225206 0.040737 0)
(0.259336 0.0258693 0)
(0.28041 0.0158009 0)
(0.29542 0.00982869 0)
(0.305887 0.00644071 0)
(0.313137 0.00439724 0)
(0.318271 0.00307971 0)
(0.32191 0.00218731 0)
(0.324388 0.00155588 0)
(0.326015 0.00107494 0)
(0.326515 0.000705496 0)
(0.327028 0.000271731 0)
(0.32325 -0.000442622 0)
(0.325281 -0.00180472 0)
(0.301557 -0.00664126 0)
(0.310079 -0.0158792 0)
(0.202824 -0.0426765 0)
(0.190019 -0.114294 0)
)
;

boundaryField
{
    movingWall
    {
        type            fixedValue;
        value           uniform (1 0 0);
    }
    fixedWalls
    {
        type            noSlip;
    }
    frontAndBack
    {
        type            empty;
    }
}


// ************************************************************************* //
