/*--------------------------------*- C++ -*----------------------------------*\
  =========                 |
  \\      /  F ield         | OpenFOAM: The Open Source CFD Toolbox
   \\    /   O peration     | Website:  https://openfoam.org
    \\  /    A nd           | Version:  10
     \\/     M anipulation  |
\*---------------------------------------------------------------------------*/
FoamFile
{
    format      ascii;
    class       surfaceScalarField;
    location    "8.4";
    object      phi;
}
// * * * * * * * * * * * * * * * * * * * * * * * * * * * * * * * * * * * * * //

dimensions      [0 3 -1 0 0 0 0];

internalField   nonuniform List<scalar> 
890
(
0.00984597
0.000154033
0.00971754
0.000128432
0.00946824
0.000249297
0.00941709
5.11453e-05
0.000148454
0.00926864
0.0101198
3.42224e-05
0.0102015
4.67922e-05
0.0104075
4.32064e-05
0.0104658
-7.088e-06
-6.80116e-05
0.0106822
0.0100717
-3.74407e-05
0.0102153
-9.68667e-05
0.0103784
-0.000119838
0.0105212
-0.000149951
-0.000190066
0.0106433
0.0100897
-0.0001271
0.0102141
-0.000221281
0.0103302
-0.000235946
0.0104186
-0.000238362
-0.000251017
0.0104795
0.0098729
0.00965162
0.00941567
0.00917731
0.00892629
0.00927027
-0.000101502
9.98748e-05
0.00929431
-0.000264764
0.000240722
0.00936706
-0.00038728
0.000314523
0.00947494
-0.000491194
0.000383319
0.00960928
-0.000596718
0.000462376
0.00977298
-0.000732382
0.000568689
0.00995288
-0.000885371
0.000705471
0.0101414
-0.0010691
0.000880547
0.0103296
-0.0012772
0.00108902
0.0105007
-0.00150682
0.00133575
0.0106427
-0.00174096
0.0015989
0.0107451
-0.00196374
0.00186136
0.0107966
-0.00215517
0.00210367
0.0107895
-0.00228916
0.00229628
0.0107071
-0.00234221
0.0024246
0.0105341
-0.00230188
0.00247483
0.0102968
-0.00221419
0.00245155
0.0100412
-0.00212398
0.00237955
0.00977008
-0.0019782
0.00224934
0.0094862
-0.00177869
0.00206257
0.0092007
-0.00154487
0.00183037
0.00892205
-0.00128139
0.00156003
0.00866479
-0.00100583
0.00126309
0.00844532
-0.000736676
0.000956145
0.00827029
-0.000477931
0.000652961
0.00813955
-0.00023324
0.00036398
0.0080494
-6.62292e-06
9.67761e-05
0.00799592
0.000205354
-0.000151877
0.00797714
0.000385184
-0.000366403
0.00798152
0.000536696
-0.000541071
0.00799986
0.000655773
-0.000674115
0.0080216
0.000743864
-0.000765604
0.00804155
0.000790303
-0.000810249
0.00805315
0.000810143
-0.000821751
0.00805529
0.000784747
-0.000786882
0.00804285
0.000753936
-0.000741496
0.00801996
0.000680482
-0.000657598
0.00797692
0.000635253
-0.000592214
0.00792271
0.000550026
-0.000495813
0.00784772
0.000512067
-0.000437071
0.00777086
0.000431327
-0.000354469
0.00767782
0.000387566
-0.000294528
0.00758665
0.000336796
-0.00024563
0.00748417
0.000301439
-0.000198954
0.000312921
-0.000214875
0.0107475
-0.000166724
0.0107715
-0.000288804
0.0107934
-0.00040913
0.0108222
-0.000520005
0.0108547
-0.000629214
0.0108717
-0.000749443
0.0108763
-0.000889957
0.0108601
-0.00105289
0.0108227
-0.00123984
0.0107529
-0.00143696
0.0106439
-0.00163204
0.0104857
-0.00180549
0.0102804
-0.0019499
0.0100141
-0.00202281
0.00966443
-0.00199256
0.00923363
-0.00187108
0.00876469
-0.00174525
0.00827627
-0.00163556
0.00779053
-0.00149246
0.00731503
-0.00130318
0.00687429
-0.00110413
0.00646573
-0.000872825
0.00610948
-0.000649586
0.00581891
-0.000446102
0.00560026
-0.000259279
0.00544985
-8.28314e-05
0.00536482
7.84035e-05
0.00534815
0.000222028
0.00538471
0.000348624
0.00546303
0.000458374
0.00556957
0.000549234
0.00569364
0.000619798
0.00582193
0.000662007
0.00594748
0.000684601
0.00605567
0.000676557
0.00614666
0.00066294
0.00620974
0.000617399
0.00625304
0.000591957
0.00627541
0.000527659
0.00628542
0.000502059
0.00629288
0.000423867
0.0062833
0.000397144
0.00628203
0.000338061
0.00626097
0.000322505
0.00032205
0.0107282
-0.000251641
0.0107731
-0.000333716
0.0107871
-0.000423166
0.0107811
-0.000513932
0.0107536
-0.000601701
0.010702
-0.000697914
0.0106212
-0.000809089
0.0105076
-0.00093928
0.0103542
-0.00108648
0.0101639
-0.00124663
0.00994489
-0.00141306
0.00968955
-0.00155016
0.00937527
-0.00163562
0.00891919
-0.00156672
0.00833136
-0.00140473
0.00771453
-0.00125425
0.00708124
-0.00111196
0.00635911
-0.000913428
0.00560348
-0.000736832
0.00490534
-0.000605037
0.0042628
-0.000461593
0.00372071
-0.000330733
0.00328627
-0.000215148
0.00295769
-0.000117517
0.00273018
-3.17708e-05
0.00259518
5.2171e-05
0.00254328
0.000130302
0.00256068
0.000204624
0.00263715
0.000272158
0.00276162
0.000333903
0.00292285
0.000388005
0.00311072
0.000431927
0.00331174
0.000460982
0.00351865
0.000477694
0.00371773
0.000477471
0.00391076
0.000469918
0.00408429
0.000443862
0.00425445
0.000421795
0.0044042
0.000377915
0.00455447
0.000351783
0.00468232
0.000296026
0.004802
0.000277456
0.00491018
0.000229887
0.00500534
0.000227345
0.000211578
0.0105096
-0.000281684
0.0104957
-0.000319806
0.0104364
-0.000363937
0.0103308
-0.000408297
0.0101819
-0.000452826
0.00998786
-0.000503833
0.00973587
-0.000557102
0.00942625
-0.000629663
0.0090395
-0.000699723
0.00859217
-0.000799303
0.00805748
-0.000878361
0.00750073
-0.000993407
0.00690021
-0.00103511
0.00613372
-0.000800232
0.00517329
-0.000444296
0.00404591
-0.000126868
0.00287531
5.86392e-05
0.00184142
0.000120461
0.0010751
2.9492e-05
0.000573335
-0.000103274
0.000297226
-0.000185485
0.000145605
-0.000179112
6.5371e-05
-0.000134914
3.2451e-05
-8.45969e-05
3.8083e-05
-3.74028e-05
8.345e-05
6.8039e-06
0.000171101
4.26518e-05
0.00029924
7.6485e-05
0.000463507
0.000107891
0.000660459
0.00013695
0.000885874
0.000162591
0.00113438
0.000183417
0.00139813
0.000197235
0.00167079
0.000205039
0.00194286
0.000205395
0.00221207
0.000200706
0.0024674
0.000188536
0.00271403
0.000175163
0.00293716
0.000154784
0.00315092
0.000138026
0.00333222
0.000114726
0.00350805
0.000101626
0.00365572
8.22175e-05
0.00380354
7.95204e-05
6.98596e-05
0.00864461
0.0083248
0.00796087
0.00755257
0.00709974
0.00659591
0.00603881
0.00540915
0.00470942
0.00391012
0.00303176
0.00203835
0.00100325
0.000203015
-0.000241281
-0.00036815
-0.00030951
-0.00018905
-0.000159558
-0.000262832
-0.000448317
-0.000627428
-0.000762342
-0.000846939
-0.000884342
-0.000877538
-0.000834886
-0.000758401
-0.00065051
-0.00051356
-0.000350969
-0.000167552
2.96825e-05
0.000234722
0.000440117
0.000640823
0.000829359
0.00100452
0.00115931
0.00129733
0.00141206
0.00151368
0.0015959
0.00167542
3.38727e-05
-3.38727e-05
-5.17679e-06
3.90495e-05
-0.000142412
0.000137236
-0.000425053
0.000282641
-0.000834818
0.000409765
-0.0012985
0.000463686
-0.00176097
0.000462467
-0.00217824
0.000417271
-0.0025211
0.000342862
-0.00276211
0.000241008
-0.00288652
0.00012441
-0.00287842
-8.0993e-06
-0.00274684
-0.000131584
-0.00249354
-0.0002533
-0.00212925
-0.000364285
-0.00167565
-0.0004536
-0.00116291
-0.00051274
-0.000615857
-0.000547055
-5.62787e-05
-0.000559578
0.00049256
-0.000548839
0.00100664
-0.000514081
0.00146422
-0.000457575
0.0018475
-0.000383283
0.00214451
-0.000297013
0.00235039
-0.00020588
0.00246388
-0.000113487
0.00248854
-2.46617e-05
0.00244137
4.71718e-05
0.00233648
0.000104894
0.00218953
0.000146951
0.00201682
0.000172705
0.00183349
0.000183333
0.00165018
0.000183307
0.00147587
0.000174308
0.00132388
0.000151996
0.00120939
0.000114488
0.00113574
7.36489e-05
0.00109954
3.61971e-05
0.0010908
8.73833e-06
0.00110326
-1.24566e-05
0.00112882
-2.55566e-05
0.00116666
-3.78483e-05
0.0012061
-3.94399e-05
0.00124631
-4.02011e-05
-3.36788e-05
-0.000103454
6.95809e-05
-0.000426
0.000361596
-0.00081202
0.000523256
-0.00117364
0.000644259
-0.00147475
0.000710875
-0.00171372
0.000702654
-0.00188771
0.00063646
-0.00199231
0.000521866
-0.00201844
0.000368995
-0.00195231
0.000174878
-0.00178584
-4.20557e-05
-0.00152765
-0.000266287
-0.00116068
-0.000498563
-0.000697711
-0.000716265
-0.000151436
-0.00091056
0.00045137
-0.00105641
0.00109296
-0.00115433
0.00175013
-0.00120422
0.00240127
-0.00121073
0.00302473
-0.0011723
0.00360249
-0.00109183
0.00411808
-0.000973166
0.00455781
-0.000823018
0.00491281
-0.000652012
0.00517958
-0.000472652
0.00535871
-0.000292613
0.00545496
-0.000120919
0.00547275
2.93894e-05
0.00542202
0.000155618
0.00531022
0.000258757
0.00515319
0.000329734
0.00497149
0.000365029
0.00477842
0.000376374
0.00458674
0.000365988
0.00440575
0.000332994
0.00424649
0.000273743
0.00411198
0.000208159
0.00400488
0.0001433
0.00392044
9.31733e-05
0.00386089
4.7101e-05
0.00382748
7.85245e-06
0.00380686
-1.72286e-05
0.00380123
-3.38124e-05
0.00378804
-2.70153e-05
-2.33778e-05
-0.000518295
0.000587876
-0.000709918
0.000553218
-0.000765726
0.000579064
-0.000730401
0.000608933
-0.000623998
0.000604472
-0.000470202
0.000548859
-0.000274325
0.000440583
-3.93175e-05
0.000286858
0.000245606
8.40715e-05
0.000589775
-0.000169292
0.000996757
-0.000449037
0.00146815
-0.000737681
0.00199088
-0.0010213
0.00255836
-0.00128374
0.00315491
-0.00150711
0.00376759
-0.00166909
0.00437803
-0.00176477
0.00497043
-0.00179662
0.00553062
-0.00177092
0.00604824
-0.00168992
0.00651093
-0.00155453
0.00690951
-0.00137174
0.00723695
-0.00115046
0.00749103
-0.000906097
0.00767252
-0.00065414
0.00778508
-0.000405177
0.00783443
-0.00017027
0.0078248
3.9027e-05
0.00775766
0.000222755
0.00764703
0.000369385
0.00750041
0.000476353
0.00732915
0.000536295
0.00714444
0.000561081
0.00695654
0.000553891
0.00677087
0.000518665
0.00659176
0.000452853
0.00642526
0.000374654
0.00627154
0.000297018
0.00614291
0.000221803
0.00603178
0.000158233
0.00595374
8.58948e-05
0.00589287
4.36395e-05
0.00585392
5.14126e-06
0.00582352
3.3796e-06
2.77127e-05
-0.000257405
0.000845281
-0.000181814
0.000477628
3.33076e-05
0.000363942
0.000363567
0.000278673
0.000780374
0.000187666
0.00125475
7.44774e-05
0.00176382
-6.8483e-05
0.00229441
-0.000243729
0.00284603
-0.000467555
0.00341397
-0.000737227
0.00399457
-0.00102964
0.00458515
-0.00132826
0.00518172
-0.00161786
0.00576934
-0.00187136
0.00633342
-0.00207119
0.00686531
-0.00220098
0.00735282
-0.00225227
0.00779094
-0.00223474
0.008178
-0.00215798
0.00851041
-0.00202232
0.00878679
-0.00183091
0.00900701
-0.00159196
0.00917184
-0.00131529
0.00928524
-0.00101949
0.00935158
-0.000720479
0.00937735
-0.000430945
0.00936954
-0.000162466
0.0093251
8.34679e-05
0.00924585
0.000302007
0.0091418
0.000473439
0.00901645
0.000601703
0.00886965
0.000683089
0.0087091
0.000721631
0.00854044
0.000722551
0.00837336
0.000685748
0.00820027
0.00062594
0.00803545
0.000539478
0.00787268
0.000459788
0.00772881
0.000365675
0.00758582
0.000301218
0.00745256
0.000219154
0.00733196
0.000164239
0.00722159
0.000115518
0.00714408
8.08897e-05
0.000105678
0.000945156
0.00166351
0.00234197
0.00300396
0.00365401
0.00429717
0.00493416
0.00557098
0.00619244
0.00679097
0.00736022
0.00789332
0.00837913
0.00880405
0.00915746
0.00943131
0.00963058
0.00977539
0.00986675
0.00990699
0.00990645
0.00987452
0.00982232
0.00975897
0.00969146
0.00962449
0.0095588
0.00949039
0.009426
0.00935836
0.00928595
0.00920344
0.00911482
0.00901562
0.00891448
0.00879893
0.00868081
0.00854838
0.00841824
0.00828239
0.00814708
0.00801679
0.00788668
0.00776861
)
;

boundaryField
{
    inlet
    {
        type            calculated;
        value           nonuniform List<scalar> 5(-0.01 -0.01 -0.01 -0.01 -0.01);
    }
    outlet
    {
        type            calculated;
        value           nonuniform List<scalar> 10(0.00738612 0.00625184 0.00511581 0.00394526 0.00174528 0.00127998 0.00377774 0.00577243 0.00706611 0.00765941);
    }
    upperWall
    {
        type            calculated;
        value           uniform 0;
    }
    lowerWall
    {
        type            calculated;
        value           uniform 0;
    }
    frontAndBack
    {
        type            empty;
        value           nonuniform List<scalar> 0();
    }
}


// ************************************************************************* //
