/*--------------------------------*- C++ -*----------------------------------*\
  =========                 |
  \\      /  F ield         | OpenFOAM: The Open Source CFD Toolbox
   \\    /   O peration     | Website:  https://openfoam.org
    \\  /    A nd           | Version:  10
     \\/     M anipulation  |
\*---------------------------------------------------------------------------*/
FoamFile
{
    format      ascii;
    class       surfaceScalarField;
    location    "6.675";
    object      phi;
}
// * * * * * * * * * * * * * * * * * * * * * * * * * * * * * * * * * * * * * //

dimensions      [0 3 -1 0 0 0 0];

internalField   nonuniform List<scalar> 
928
(
0.0958205
0.00417951
0.103162
-0.00734174
0.10669
-0.00352811
-0.00932818
0.116019
0.0946697
0.00950978
0.10582
-0.0184925
0.102341
-4.9066e-05
-0.0190497
0.112063
0.0958554
0.0136543
0.108482
-0.0311188
0.103585
0.00484718
-0.0394701
0.124006
0.103653
0.0100009
0.094208
-0.0216734
0.098868
0.000187233
0.146384
-0.0869861
0.110943
0.00507598
-0.0164508
0.127393
0.108563
0.00857558
-0.0415266
0.133639
0.125476
0.0071054
-0.0461419
0.130091
0.153489
0.107347
0.127206
0.000187644
0.127897
-0.000691254
0.128834
-0.000937105
-0.00136884
0.130203
0.13414
-0.000312957
0.134108
-0.000659594
0.135363
-0.00219229
-0.0013685
0.135363
0.134207
-0.00442845
0.137342
-0.00379494
0.135057
9.25228e-05
0.00155781
0.132131
0.104824
-0.00190455
0.11547
-0.0144412
0.110104
0.00545868
0.100896
0.0107651
0.130659
-0.000455691
0.131106
-0.000447498
0.130782
0.000323862
0.130646
0.000136125
0.130796
-0.000149549
0.130957
-0.000161348
0.130989
-3.20905e-05
0.130721
0.000268577
0.130453
0.000267623
0.129248
0.00120457
0.12766
0.00158809
0.125388
0.00227259
0.122996
0.00239138
0.120781
0.00221524
0.119171
0.00161012
0.118439
0.000732363
0.118091
0.000347109
0.118334
-0.000242714
0.118699
-0.000365311
0.118999
-0.00029948
0.119167
-0.000168215
0.118519
0.000647792
0.117585
0.000934091
0.115531
0.00205411
0.113469
0.00206211
0.111112
0.0023571
0.109036
0.00207632
0.107502
0.00153413
0.106119
0.00138272
0.105958
0.000160495
0.105545
0.000413546
0.106522
-0.000977216
0.107162
-0.000640457
0.108599
-0.00143696
0.10961
-0.0010109
0.110812
-0.00120148
0.111676
-0.000864095
0.111857
-0.000181513
0.111885
-2.76589e-05
0.00140875
0.135337
-0.000429761
0.135378
-0.000488713
0.135129
0.000573076
0.135895
-0.000629887
0.136387
-0.000641235
0.136621
-0.000396027
0.137124
-0.000535001
0.137636
-0.000242616
0.137514
0.000388973
0.136289
0.00242986
0.134933
0.00294431
0.133301
0.00390403
0.131764
0.00392842
0.129864
0.00411543
0.12835
0.00312373
0.127213
0.00186993
0.12716
0.000399555
0.12757
-0.000652293
0.128625
-0.00142023
0.129676
-0.00135026
0.130747
-0.00123947
0.130928
0.000467192
0.130494
0.00136779
0.129353
0.00319477
0.127823
0.00359206
0.12644
0.00374074
0.124379
0.00413693
0.123225
0.00268806
0.121505
0.00310253
0.121234
0.000431599
0.120885
0.000762871
0.121457
-0.00154956
0.122447
-0.00163069
0.123543
-0.0025322
0.125128
-0.00259631
0.126119
-0.00219277
0.127766
-0.00251042
0.128664
-0.00107977
0.13005
-0.00141401
0.00138606
0.132157
-0.000455644
0.13069
0.000978734
0.131833
-0.000570425
0.132919
-0.00171561
0.131614
0.000663755
0.132708
-0.00148998
0.13425
-0.00207702
0.134469
-0.000461728
0.13378
0.00107731
0.133443
0.00276702
0.133206
0.00318186
0.132221
0.00488853
0.130335
0.00581466
0.128487
0.00596365
0.127115
0.00449512
0.125887
0.00309814
0.1254
0.000887075
0.125558
-0.0008105
0.126362
-0.00222464
0.127574
-0.00256188
0.12872
-0.00238521
0.129926
-0.000738643
0.130375
0.000918759
0.130824
0.00274579
0.130384
0.00403127
0.129661
0.00446425
0.128212
0.00558611
0.127155
0.00374461
0.126108
0.00414919
0.12492
0.00161999
0.123767
0.0019163
0.123306
-0.00108868
0.12239
-0.000714969
0.121893
-0.00203505
0.121891
-0.00259425
0.121741
-0.00204248
0.123108
-0.00387836
0.12397
-0.00194145
0.126233
-0.00367671
-0.000521383
0.111689
-0.0112479
0.10069
0.0119769
0.105672
-0.00555146
0.104245
-0.000289323
0.0981314
0.00677763
0.102728
-0.00608698
0.102464
-0.00181268
0.100894
0.0011082
0.103545
-0.00157384
0.105898
0.000414647
0.109709
-0.000629416
0.112063
0.00253414
0.113033
0.00484497
0.113587
0.00540943
0.110344
0.00773803
0.107185
0.00625698
0.104854
0.0032185
0.101619
0.00242428
0.099142
0.000252609
0.0988752
-0.00229511
0.0998172
-0.00332714
0.101761
-0.00268278
0.104689
-0.00200912
0.108767
-0.00133157
0.112036
0.000762122
0.113873
0.00262709
0.115715
0.00374357
0.115608
0.00385203
0.11408
0.00567742
0.10918
0.00651948
0.104401
0.00669597
0.0973071
0.00600482
0.0905406
0.00605147
0.0846348
0.00387079
0.0807142
0.00132634
0.0794676
-0.000795891
0.0794871
-0.00389781
0.0824886
-0.00494296
0.0869401
-0.00812826
-0.00470468
0.109683
0.000318295
0.0878111
0.000198164
0.0872984
0.000699939
0.000312272
0.110613
-0.0102949
0.0885718
0.0222395
0.0888083
0.000463498
0.0891206
-0.00401614
0.00211159
0.0185952
-0.0370525
0.0165428
0.00751103
0.0460179
-0.01871
-0.00552184
0.00763343
-0.0230201
-0.0195543
-0.0195892
0.00408013
0.0195096
0.00691911
-0.00924185
-0.020716
-0.00742357
0.0101586
-0.0035157
-0.00945932
0.00361111
-0.00741614
-0.00607021
0.0164589
-0.00464231
-0.00751488
0.00734659
-0.0138016
0.0129843
-0.00452948
0.0139243
-0.0025139
0.0139122
0.000426774
0.0159434
-0.00266066
0.0189265
-0.000448965
0.0202444
0.00352716
0.0199132
0.00574057
0.021079
0.00657224
0.0218534
0.00548257
0.0221504
0.00292155
0.0234214
0.00115328
0.0254908
-0.00181685
0.0289654
-0.00576972
0.031389
-0.00575068
0.0339438
-0.00523759
0.0375777
-0.00564301
0.0395831
-0.00333702
0.0398374
0.000507835
0.0407512
0.00171326
0.0413072
0.00318765
0.039792
0.00536719
0.0377336
0.00773579
0.0362618
0.00799129
0.0350163
0.00794145
0.033266
0.00775513
0.0325486
0.00676887
0.033158
0.00326142
0.033978
0.000506286
0.0353956
-0.00221349
0.0376502
-0.00615236
0.0404581
-0.00775089
0.0442899
-0.01196
-0.00732848
0.00159082
-0.00279718
0.00934245
0.00240699
0.00241964
-0.00253652
-0.00541215
0.000415656
0.00793401
0.00311279
0.00455713
-0.004138
-0.00234623
-0.00689822
-0.00315786
-0.00371785
-0.00175899
-0.00391276
0.00345085
-0.00478307
0.00429375
-0.00350356
0.00550703
-0.00166224
0.00742818
0.001606
0.0101765
0.00299225
0.014525
0.00222377
0.0176555
0.00235201
0.0190643
0.00151282
0.021863
-0.00164542
0.0244435
-0.00439737
0.0240306
-0.00535684
0.0237617
-0.00548177
0.0248506
-0.00632647
0.0249006
-0.00569307
0.0246265
-0.00306289
0.0257587
-0.000624376
0.0275434
-7.13996e-05
0.0279724
0.0027586
0.0291129
0.00422673
0.0317171
0.00513161
0.0347542
0.00495416
0.0370751
0.00562053
0.0394914
0.00533881
0.0430006
0.0032597
0.0452881
0.000973926
0.0465423
-0.000747923
0.0473364
-0.00300759
0.0466389
-0.00545483
0.0452578
-0.00636986
0.0420267
-0.00872884
-0.00551317
0.103033
-0.0133276
0.0940884
0.0311838
0.0986144
-0.00406252
0.0397612
0.147974
0.0958236
-0.00915119
0.108539
0.0184687
0.103969
0.000507535
0.0190191
0.124711
0.0949128
-0.00406396
0.105658
0.00772378
0.102849
0.00331615
0.00951283
0.112355
0.095936
0.10366
0.106976
0.116489
0.155037
-0.0070633
0.0449818
0.110055
0.126165
-0.00851789
0.0405493
0.130598
0.108994
-0.00515691
0.0159634
0.13358
0.111332
0.127295
0.115966
0.00172317
0.0966462
-0.000234944
0.0937166
0.00700973
0.00278357
0.0978521
0.132169
0.000151663
0.132901
-0.000966468
0.138119
0.00179183
0.00337447
0.137528
0.134258
-0.000525661
0.133435
-0.000143702
0.133716
0.00151081
0.00174933
0.135341
0.12677
0.126626
0.128137
0.129886
0.0955615
-0.000506539
0.0970673
0.000901211
0.0950863
-0.000555546
0.0948165
0.000685441
0.0978153
0.000114041
0.0953288
-0.00165154
0.0908327
-0.00240214
0.0898386
-0.00272374
0.0876959
-0.00177006
0.084058
-0.00114519
0.0807534
-0.000198894
0.0784978
0.000593307
0.0795621
0.000541724
0.0814469
0.00110741
0.0837687
-9.79654e-05
0.0877278
-0.00160714
0.0923278
-0.00308717
0.0951109
-0.00442849
0.0958706
-0.00515715
0.0951416
-0.00462777
0.0934333
-0.00377353
0.0894983
-0.0023914
0.0853103
-0.0015051
0.0826967
-0.000449246
0.0806662
0.00140611
0.0789426
0.00165217
0.0797337
0.00196747
0.0822637
0.0016968
0.0847885
0.00260678
0.0890524
0.000690245
0.0937689
0.000904023
0.100148
-0.00103981
0.105136
-0.00172855
0.110622
-0.00451244
0.115766
-0.00589203
0.119242
-0.00648298
0.120384
-0.00659754
0.118586
-0.00457105
0.11297
-0.00311375
-0.00016599
0.134727
0.00229442
0.134592
0.00103622
0.133973
6.38162e-05
0.135704
-0.00104588
0.137071
-0.00125301
0.13646
-0.00104101
0.135202
-0.00114417
0.133567
-0.00108817
0.133357
-0.00155985
0.132726
-0.000514638
0.132712
-0.000184761
0.132819
0.000486245
0.133205
0.00015554
0.134657
-0.000344165
0.135574
-0.00101515
0.136453
-0.00248626
0.136792
-0.00342569
0.136638
-0.00427457
0.13587
-0.00438999
0.135011
-0.00376846
0.134542
-0.00330398
0.133812
-0.0016617
0.132839
-0.000532351
0.131577
0.000812625
0.131373
0.00160992
0.130916
0.00211003
0.130614
0.00226944
0.131373
0.000937462
0.132624
0.00135598
0.133918
-0.000604344
0.135437
-0.000614355
0.137415
-0.00301855
0.138915
-0.00322829
0.139226
-0.00482294
0.13851
-0.00517635
0.137265
-0.00523785
0.135306
-0.00463868
0.133929
-0.00319448
0.132887
-0.00207133
0.00110893
0.135983
0.00165205
0.136391
0.00062889
0.136672
-0.000217651
0.136461
-0.000834814
0.136242
-0.00103418
0.136209
-0.00100818
0.136158
-0.00109242
0.135639
-0.000569833
0.134662
-0.000582685
0.134451
-0.000303204
0.134783
-0.000516901
0.135461
-0.000192114
0.135886
-0.000269112
0.136189
-0.000647339
0.136002
-0.000828348
0.135109
-0.00159338
0.133725
-0.00204094
0.131972
-0.00252205
0.130069
-0.00248734
0.128297
-0.00199619
0.126522
-0.00152858
0.125718
-0.000857537
0.125631
-0.000445761
0.125937
0.000506339
0.12692
0.000627462
0.128035
0.000994778
0.129252
0.0010521
0.129876
0.000313379
0.131107
0.00012573
0.131155
-0.000652601
0.131245
-0.000704731
0.130014
-0.00178728
0.128752
-0.00196598
0.126712
-0.00278278
0.124353
-0.0028181
0.122133
-0.00301729
0.119915
-0.00242121
0.118263
-0.00154202
0.116917
-0.000725536
0.00071953
0.131538
0.132167
0.131949
0.131115
0.13008
0.129072
0.12798
0.12741
0.126827
0.126524
0.126007
0.125815
0.125546
0.124899
0.12407
0.122477
0.120436
0.117914
0.115427
0.11343
0.111902
0.111044
0.110598
0.111105
0.111732
0.112727
0.113779
0.114093
0.114218
0.113566
0.112861
0.111074
0.109108
0.106325
0.103507
0.100489
0.0980683
0.0965263
0.0958007
)
;

boundaryField
{
    inlet
    {
        type            calculated;
        value           nonuniform List<scalar> 10(-0.1 -0.1 -0.1 -0.1 -0.1 -0.1 -0.1 -0.1 -0.1 -0.1);
    }
    outlet
    {
        type            calculated;
        value           nonuniform List<scalar> 10(0.110476 0.130073 0.12814 0.0911235 0.0469136 0.0402114 0.107623 0.131612 0.117306 0.0965203);
    }
    obstacle
    {
        type            calculated;
        value           uniform 0;
    }
    upperWall
    {
        type            calculated;
        value           uniform 0;
    }
    lowerWall
    {
        type            calculated;
        value           uniform 0;
    }
    frontAndBack
    {
        type            empty;
        value           nonuniform List<scalar> 0();
    }
}


// ************************************************************************* //
