/*--------------------------------*- C++ -*----------------------------------*\
  =========                 |
  \\      /  F ield         | OpenFOAM: The Open Source CFD Toolbox
   \\    /   O peration     | Website:  https://openfoam.org
    \\  /    A nd           | Version:  10
     \\/     M anipulation  |
\*---------------------------------------------------------------------------*/
FoamFile
{
    format      ascii;
    class       surfaceScalarField;
    location    "2.45";
    object      phi;
}
// * * * * * * * * * * * * * * * * * * * * * * * * * * * * * * * * * * * * * //

dimensions      [0 3 -1 0 0 0 0];

internalField   nonuniform List<scalar> 
760
(
-1.3153e-05
1.3153e-05
-3.41119e-05
2.09589e-05
-5.55688e-05
2.14569e-05
-7.59068e-05
2.0338e-05
-9.45391e-05
1.86323e-05
-0.000111018
1.64785e-05
-0.000124929
1.39117e-05
-0.000135891
1.09614e-05
-0.000143554
7.66352e-06
-0.000147616
4.06223e-06
-0.000147831
2.14932e-07
-0.000144004
-3.82786e-06
-0.000136051
-7.95265e-06
-0.000124002
-1.20485e-05
-0.000108026
-1.59762e-05
-8.8455e-05
-1.95712e-05
-6.58185e-05
-2.26365e-05
-4.09808e-05
-2.48376e-05
-1.61228e-05
-2.48581e-05
-1.61228e-05
-2.16113e-05
3.47644e-05
-5.32408e-05
5.25883e-05
-8.53286e-05
5.35448e-05
-0.000115649
5.06582e-05
-0.000143305
4.62885e-05
-0.000167615
4.07887e-05
-0.000187972
3.42681e-05
-0.00020383
2.682e-05
-0.000214713
1.85468e-05
-0.00022021
9.5592e-06
-0.000220056
6.05347e-08
-0.000213956
-9.92835e-06
-0.00020186
-2.00479e-05
-0.000183849
-3.00601e-05
-0.000160191
-3.96339e-05
-0.000131385
-4.83768e-05
-9.82048e-05
-5.58171e-05
-6.18894e-05
-6.1153e-05
-2.53785e-05
-6.1369e-05
-4.15013e-05
-2.37904e-05
5.85548e-05
-5.84021e-05
8.72e-05
-9.34318e-05
8.85745e-05
-0.000126495
8.3721e-05
-0.000156638
7.64319e-05
-0.000183135
6.7286e-05
-0.000205341
5.64737e-05
-0.000222679
4.41578e-05
-0.000234644
3.05118e-05
-0.000240816
1.57316e-05
-0.000240836
8.08194e-08
-0.00023442
-1.63453e-05
-0.000221472
-3.29954e-05
-0.000202036
-4.94959e-05
-0.000176355
-6.53156e-05
-0.000144921
-7.981e-05
-0.000108545
-9.2194e-05
-6.85637e-05
-0.000101134
-2.82059e-05
-0.000101727
-6.97072e-05
-2.52786e-05
8.38334e-05
-6.21346e-05
0.000124056
-9.94157e-05
0.000125856
-0.000134609
0.000118915
-0.000166729
0.000108551
-0.000195025
9.55826e-05
-0.000218837
8.02851e-05
-0.00023757
6.28908e-05
-0.000250696
4.36383e-05
-0.000257753
2.27884e-05
-0.000258373
7.01273e-07
-0.000252159
-2.256e-05
-0.000238936
-4.6218e-05
-0.000218662
-6.97701e-05
-0.000191493
-9.24848e-05
-0.000157859
-0.000113444
-0.000118563
-0.000131489
-7.50499e-05
-0.000144647
-3.08972e-05
-0.00014588
-0.000100604
-2.71908e-05
0.000111024
-6.69152e-05
0.00016378
-0.00010709
0.00016603
-0.000145029
0.000156854
-0.0001797
0.000143222
-0.000210332
0.000126215
-0.000236249
0.000106203
-0.000256845
8.34867e-05
-0.00027157
5.83631e-05
-0.000279924
3.1142e-05
-0.000281449
2.22701e-06
-0.000275699
-2.83102e-05
-0.000262337
-5.95798e-05
-0.000241167
-9.09408e-05
-0.000212193
-0.000121459
-0.000175723
-0.000149914
-0.000132517
-0.000174695
-8.41483e-05
-0.000193016
-3.47116e-05
-0.000195316
-0.000135316
-2.97089e-05
0.000140733
-7.31797e-05
0.000207251
-0.000117121
0.000209971
-0.000158616
0.000198349
-0.000196576
0.000181182
-0.000230212
0.00015985
-0.00025884
0.000134831
-0.00028185
0.000106497
-0.000298678
7.51913e-05
-0.000308786
4.12496e-05
-0.000311642
5.083e-06
-0.000306679
-3.32725e-05
-0.000293371
-7.28881e-05
-0.000271289
-0.000113023
-0.000240185
-0.000152563
-0.00020014
-0.000189959
-0.000151789
-0.000223046
-9.68327e-05
-0.000247972
-4.0086e-05
-0.000252063
-0.000175402
-3.29066e-05
0.00017364
-8.11089e-05
0.000255453
-0.000129775
0.000258637
-0.000175698
0.000244272
-0.000217725
0.000223209
-0.000255054
0.00019718
-0.000287015
0.000166791
-0.000313014
0.000132496
-0.000332495
9.46724e-05
-0.000344896
5.36504e-05
-0.000349611
9.79768e-06
-0.000345937
-3.6946e-05
-0.00033309
-8.57351e-05
-0.00031031
-0.000135803
-0.000276946
-0.000185926
-0.000232677
-0.000234228
-0.000177845
-0.000277878
-0.000114206
-0.000311611
-4.75487e-05
-0.00031872
-0.000222951
-3.68708e-05
0.00021051
-9.09117e-05
0.000309494
-0.000145352
0.000313078
-0.000196626
0.000295545
-0.000243515
0.000270099
-0.000285226
0.000238891
-0.000321131
0.000202696
-0.000350695
0.00016206
-0.00037341
0.000117387
-0.000388724
6.8964e-05
-0.000395975
1.70487e-05
-0.000394324
-3.85965e-05
-0.000382665
-9.73947e-05
-0.000359782
-0.000158686
-0.000324407
-0.000221301
-0.000275518
-0.000283117
-0.000212845
-0.000340551
-0.000137977
-0.000386479
-5.79745e-05
-0.000398723
-0.000280925
-4.17311e-05
0.000252242
-0.000102884
0.000370647
-0.000164263
0.000374457
-0.000221863
0.000353146
-0.000274412
0.000322647
-0.000321158
0.000285637
-0.000361572
0.000243111
-0.000395242
0.00019573
-0.000421772
0.000143917
-0.000440684
8.78765e-05
-0.000451311
2.76756e-05
-0.000452714
-3.71938e-05
-0.000443412
-0.000106696
-0.000421607
-0.000180491
-0.00038513
-0.000257779
-0.000331779
-0.000336469
-0.000260084
-0.000412246
-0.000170915
-0.000475647
-7.29124e-05
-0.000496726
-0.000353838
-4.76874e-05
0.000299929
-0.00011746
0.00044042
-0.000187087
0.000444083
-0.000252039
0.000418098
-0.000311015
0.000381623
-0.000363369
0.000337991
-0.000408751
0.000288493
-0.000446964
0.000233943
-0.000477831
0.000174784
-0.000501049
0.000111095
-0.000516042
4.26692e-05
-0.000521872
-3.13646e-05
-0.000516683
-0.000111885
-0.000497999
-0.000199175
-0.000462424
-0.000293354
-0.000405902
-0.00039299
-0.000324669
-0.000493479
-0.000217674
-0.000582643
-9.52768e-05
-0.000619123
-0.000449114
-5.50603e-05
0.000354989
-0.000135294
0.000520654
-0.000214661
0.000523449
-0.000288023
0.00049146
-0.000354113
0.000447713
-0.000412489
0.000396367
-0.0004631
0.000339104
-0.000506097
0.00027694
-0.000541659
0.000210346
-0.000569818
0.000139254
-0.000590251
6.31017e-05
-0.000602228
-1.93869e-05
-0.000603617
-0.000110496
-0.000591305
-0.000211487
-0.000560386
-0.000324272
-0.000504111
-0.000449265
-0.000414646
-0.000582944
-0.00028641
-0.000710878
-0.000130955
-0.000774578
-0.00058007
-6.43848e-05
0.000419374
-0.000157396
0.000613665
-0.000248212
0.000614266
-0.000331032
0.00057428
-0.000404758
0.000521439
-0.000469304
0.000460913
-0.000525079
0.000394879
-0.000572755
0.000324616
-0.00061306
0.00025065
-0.000646562
0.000172756
-0.000673409
8.99491e-05
-0.000693531
7.35315e-07
-0.000704689
-9.93392e-05
-0.000703562
-0.000212614
-0.000683701
-0.000344133
-0.000634872
-0.000498094
-0.000542736
-0.00067508
-0.000392093
-0.000861521
-0.000192771
-0.0009739
-0.000772841
-7.66141e-05
0.000495988
-0.000185358
0.000722409
-0.000289558
0.000718466
-0.000382787
0.00066751
-0.000464378
0.00060303
-0.000534817
0.000531352
-0.000595191
0.000455253
-0.000646908
0.000376333
-0.000691472
0.000295214
-0.000730267
0.000211551
-0.000764351
0.000124033
-0.000794037
3.04217e-05
-0.000818898
-7.44784e-05
-0.000835537
-0.000195975
-0.000836829
-0.000342841
-0.000809004
-0.000525919
-0.000728688
-0.000755397
-0.00056316
-0.00102705
-0.000311917
-0.00122514
-0.00108476
-9.35667e-05
0.000589555
-0.000221925
0.000850767
-0.000341492
0.000838033
-0.000445745
0.000771763
-0.000534923
0.000692208
-0.000610337
0.000606766
-0.000674025
0.000518941
-0.000728371
0.000430679
-0.000775883
0.000342727
-0.000819022
0.000254689
-0.000860045
0.000165057
-0.000900705
7.10814e-05
-0.000942545
-3.26381e-05
-0.00098479
-0.000153731
-0.00102165
-0.000305985
-0.00103802
-0.00050954
-0.0010015
-0.000791924
-0.000849194
-0.00117935
-0.000546703
-0.00152763
-0.00163146
-0.000116177
0.000705732
-0.000269521
0.00100411
-0.000407387
0.000975899
-0.000523197
0.000887573
-0.000619017
0.000788028
-0.000697561
0.000685311
-0.000762285
0.000583665
-0.000816801
0.000485194
-0.00086479
0.000390716
-0.00090996
0.00029986
-0.000955919
0.000211015
-0.00100657
0.00012173
-0.00106806
2.8851e-05
-0.00114245
-7.93355e-05
-0.00123144
-0.000216995
-0.00132568
-0.000415299
-0.00139285
-0.000724755
-0.0013133
-0.0012589
-0.000979552
-0.00186138
-0.00261101
-0.000170705
0.000876437
-0.00034654
0.00117994
-0.000496789
0.00112615
-0.000619563
0.00101035
-0.000719059
0.000887524
-0.000797898
0.00076415
-0.000860277
0.000646044
-0.000911064
0.000535981
-0.000955454
0.000435106
-0.000998738
0.000343143
-0.00104693
0.000259206
-0.00110628
0.000181077
-0.00118338
0.000105958
-0.00128804
2.53192e-05
-0.00143817
-6.68682e-05
-0.00163668
-0.000216784
-0.00186865
-0.000492783
-0.00193175
-0.00119581
-0.00154709
-0.00224604
-0.0041581
-0.000162481
0.00103892
-0.000410325
0.00142779
-0.000601645
0.00131747
-0.000743859
0.00115256
-0.000845403
0.000989068
-0.000914954
0.0008337
-0.00096312
0.00069421
-0.000998645
0.000571506
-0.00102833
0.000464791
-0.0010574
0.000372218
-0.0010917
0.000293501
-0.00113789
0.000227263
-0.00120934
0.000177408
-0.0013272
0.000143182
-0.00152358
0.000129518
-0.00181662
7.62519e-05
-0.00221475
-9.46521e-05
-0.00235382
-0.00105674
-0.00177271
-0.00282715
-0.00593081
-0.00044976
0.00148868
-0.000630034
0.00160806
-0.000767471
0.0014549
-0.000870674
0.00125576
-0.000923341
0.00104173
-0.000942289
0.000852649
-0.000941544
0.000693465
-0.000930951
0.000560914
-0.000918209
0.000452049
-0.000908833
0.000362842
-0.000911046
0.000295714
-0.000928329
0.000244546
-0.00097476
0.000223838
-0.00105271
0.000221137
-0.0011921
0.000268906
-0.00136798
0.000252133
-0.00155456
9.1925e-05
-0.00161406
-0.000997246
-0.000968386
-0.00347282
-0.0068992
-0.00123041
0.00271909
-0.00113672
0.00151438
-0.000903214
0.0012214
-0.000603831
0.000956381
-0.00030477
0.000742674
-2.96965e-05
0.000577575
0.00021103
0.000452738
0.000415662
0.000356282
0.000584887
0.000282825
0.000724147
0.000223581
0.000837115
0.000182746
0.000932323
0.000149339
0.00102496
0.000131197
0.00111851
0.00012759
0.00127742
0.000109994
0.00142961
9.99449e-05
0.00167771
-0.000156173
0.00163292
-0.000952457
0.00116978
-0.00300968
-0.00572942
0.00271909
0.00423346
0.00545486
0.00641124
0.00715392
0.00773149
0.00818423
0.00854051
0.00882333
0.00904692
0.00922966
0.009379
0.0095102
0.00963779
0.00974778
0.00984773
0.00969155
0.0087391
0.00572942
)
;

boundaryField
{
    movingWall
    {
        type            calculated;
        value           uniform 0;
    }
    fixedWalls
    {
        type            calculated;
        value           uniform 0;
    }
    frontAndBack
    {
        type            empty;
        value           nonuniform List<scalar> 0();
    }
}


// ************************************************************************* //
