/*--------------------------------*- C++ -*----------------------------------*\
  =========                 |
  \\      /  F ield         | OpenFOAM: The Open Source CFD Toolbox
   \\    /   O peration     | Website:  https://openfoam.org
    \\  /    A nd           | Version:  10
     \\/     M anipulation  |
\*---------------------------------------------------------------------------*/
FoamFile
{
    format      ascii;
    class       surfaceScalarField;
    location    "4.575";
    object      phi;
}
// * * * * * * * * * * * * * * * * * * * * * * * * * * * * * * * * * * * * * //

dimensions      [0 3 -1 0 0 0 0];

internalField   nonuniform List<scalar> 
760
(
-8.58972e-06
8.58976e-06
-2.80965e-05
1.95068e-05
-5.04132e-05
2.23166e-05
-7.26711e-05
2.22579e-05
-9.3989e-05
2.13179e-05
-0.000113922
1.99327e-05
-0.000132036
1.81141e-05
-0.000147828
1.57918e-05
-0.000160714
1.28866e-05
-0.000170039
9.32467e-06
-0.000175088
5.04922e-06
-0.000175114
2.62238e-08
-0.000169422
-5.69257e-06
-0.00015744
-1.19813e-05
-0.00013887
-1.85706e-05
-0.000113828
-2.5042e-05
-8.3131e-05
-3.06968e-05
-4.89377e-05
-3.41933e-05
-1.6672e-05
-3.22657e-05
-1.6672e-05
-2.0312e-05
2.89018e-05
-5.68451e-05
5.60398e-05
-9.72275e-05
6.2699e-05
-0.00013705
6.20807e-05
-0.000174728
5.89956e-05
-0.000209346
5.45506e-05
-0.000240078
4.88467e-05
-0.000266069
4.17826e-05
-0.000286407
3.3224e-05
-0.000300125
2.30436e-05
-0.000306191
1.11151e-05
-0.000303733
-2.43168e-06
-0.000291732
-1.76939e-05
-0.000269554
-3.41594e-05
-0.000236936
-5.11889e-05
-0.00019424
-6.7738e-05
-0.00014284
-8.20967e-05
-8.60887e-05
-9.09445e-05
-3.18982e-05
-8.64562e-05
-4.85702e-05
-2.45252e-05
5.3427e-05
-6.73906e-05
9.89052e-05
-0.000114344
0.000109652
-0.000160427
0.000108164
-0.000203885
0.000102454
-0.000243704
9.43692e-05
-0.000278971
8.41135e-05
-0.000308752
7.15637e-05
-0.000332063
5.65346e-05
-0.000347861
3.88418e-05
-0.000355105
1.83591e-05
-0.000352585
-4.95116e-06
-0.000339241
-3.10378e-05
-0.000314233
-5.91674e-05
-0.000277103
-8.83197e-05
-0.000228059
-0.000116782
-0.000168491
-0.000141665
-0.000102147
-0.000157289
-3.82229e-05
-0.00015038
-8.67931e-05
-2.62024e-05
7.96294e-05
-7.20823e-05
0.000144785
-0.000122244
0.000159813
-0.000171468
0.000157388
-0.000217982
0.000148968
-0.000260783
0.00013717
-0.000298975
0.000122305
-0.000331629
0.000104218
-0.000357745
8.26503e-05
-0.000376227
5.73239e-05
-0.000385883
2.80155e-05
-0.000385457
-5.37717e-06
-0.000373411
-4.30833e-05
-0.0003485
-8.40793e-05
-0.000309749
-0.00012707
-0.000256914
-0.000169617
-0.000191158
-0.00020742
-0.000116543
-0.000231904
-4.37409e-05
-0.000223182
-0.000130534
-2.7543e-05
0.000107172
-7.60998e-05
0.000193342
-0.000129227
0.000212941
-0.000181464
0.000209625
-0.000231041
0.000198544
-0.000277008
0.000183138
-0.000318527
0.000163824
-0.000354713
0.000140404
-0.000384579
0.000112516
-0.000406978
7.97236e-05
-0.000420565
4.16025e-05
-0.00042383
-2.11196e-06
-0.000414779
-5.21351e-05
-0.000391488
-0.00010737
-0.000352128
-0.00016643
-0.000295532
-0.000226213
-0.000222255
-0.000280697
-0.000136684
-0.000317475
-5.16546e-05
-0.000308211
-0.000182189
-2.91557e-05
0.000136328
-8.09015e-05
0.000245088
-0.000137588
0.000269627
-0.000193454
0.000265492
-0.000246742
0.000251832
-0.000296585
0.000232981
-0.000342241
0.00020948
-0.000382918
0.000181081
-0.000417688
0.000147285
-0.000445396
0.000107432
-0.000464562
6.07687e-05
-0.000473393
6.71916e-06
-0.000469324
-5.6204e-05
-0.000449461
-0.000127234
-0.000410681
-0.00020521
-0.000350277
-0.000286617
-0.00026748
-0.000363494
-0.000166709
-0.000418246
-6.39052e-05
-0.000411015
-0.000246094
-3.11677e-05
0.000167496
-8.68089e-05
0.000300729
-0.000147803
0.000330621
-0.000208019
0.000325708
-0.000265723
0.000309536
-0.00032017
0.000287428
-0.00037077
0.000260079
-0.000416892
0.000227204
-0.000457758
0.000188151
-0.000492304
0.000141977
-0.000519015
8.74805e-05
-0.000535681
2.33843e-05
-0.000539445
-5.24401e-05
-0.000525975
-0.000140703
-0.000490301
-0.000240884
-0.000427207
-0.000349711
-0.000333302
-0.000457398
-0.000212012
-0.000539537
-8.34375e-05
-0.000539589
-0.000329531
-3.36101e-05
0.000201106
-9.39057e-05
0.000361025
-0.000159962
0.000396677
-0.000225203
0.00039095
-0.000287937
0.000372269
-0.000347589
0.00034708
-0.000403798
0.000316288
-0.000456195
0.000279601
-0.000504279
0.000236235
-0.000547232
0.00018493
-0.000583677
0.000123925
-0.000611321
5.10281e-05
-0.000626889
-3.68721e-05
-0.000624575
-0.000143017
-0.000596924
-0.000268535
-0.000534825
-0.00041181
-0.000430024
-0.000562199
-0.00028236
-0.000687201
-0.000116427
-0.000705523
-0.000445958
-3.65324e-05
0.000237638
-0.000102294
0.000426787
-0.00017415
0.000468533
-0.000244997
0.000461796
-0.000313212
0.000440485
-0.00037846
0.000412327
-0.000440693
0.000378521
-0.000499937
0.000338846
-0.000556146
0.000292443
-0.000608995
0.000237779
-0.000657568
0.000172499
-0.000699828
9.32876e-05
-0.000732692
-4.00744e-06
-0.000748859
-0.00012685
-0.000738075
-0.00027932
-0.000685691
-0.000464194
-0.000575075
-0.000672814
-0.000397299
-0.000864977
-0.000177208
-0.000925614
-0.000623166
-4.00526e-05
0.000277691
-0.000112198
0.000498932
-0.000190579
0.000546914
-0.000267486
0.000538703
-0.000341413
0.000514412
-0.000412337
0.000483251
-0.000480631
0.000446816
-0.000546858
0.000405072
-0.00061164
0.000357226
-0.000675488
0.000301627
-0.000738469
0.00023548
-0.000799617
0.000154436
-0.000855921
5.22966e-05
-0.00090142
-8.13511e-05
-0.000922511
-0.000258229
-0.000898135
-0.000488569
-0.000798957
-0.000771992
-0.000597946
-0.00106599
-0.000300784
-0.00122278
-0.00092395
-4.44162e-05
0.000322107
-0.000124066
0.000578582
-0.000209703
0.000632551
-0.000292962
0.000621961
-0.000372535
0.000593986
-0.000448806
0.000559522
-0.000522667
0.000520677
-0.000595343
0.000477749
-0.000668343
0.000430225
-0.000743374
0.000376658
-0.000822112
0.000314219
-0.000905629
0.000237953
-0.000993001
0.000139669
-0.00108209
7.73673e-06
-0.0011585
-0.000181814
-0.00119743
-0.000449647
-0.00115377
-0.000815648
-0.000964984
-0.00125477
-0.000567536
-0.00162022
-0.00149149
-5.01009e-05
0.000372208
-0.000138726
0.000667206
-0.00023237
0.000726196
-0.000322056
0.000711647
-0.000406832
0.000678763
-0.000487606
0.000640295
-0.000565866
0.000598937
-0.000643569
0.000555451
-0.000723231
0.000509888
-0.000808079
0.000461505
-0.000902142
0.000408281
-0.0010101
0.000345916
-0.00113644
0.000266002
-0.00128225
0.000153548
-0.00144717
-1.68889e-05
-0.00160898
-0.000287846
-0.00170855
-0.000716073
-0.00160652
-0.0013568
-0.00106411
-0.00216264
-0.0025556
-5.80198e-05
0.000430228
-0.000157653
0.00076684
-0.000260045
0.000828587
-0.000355917
0.000807519
-0.000444961
0.000767807
-0.000528784
0.000724118
-0.000609514
0.000679667
-0.000689756
0.000635693
-0.000772916
0.000593048
-0.000863699
0.000552288
-0.000968768
0.00051335
-0.00109754
0.00047469
-0.00126286
0.000431319
-0.00148056
0.000371254
-0.00176701
0.000269556
-0.00212619
7.13309e-05
-0.00247161
-0.000370651
-0.0024923
-0.00133611
-0.00169095
-0.00296399
-0.00424655
-7.02684e-05
0.000500496
-0.000183836
0.000880408
-0.000295134
0.000939886
-0.000396004
0.000908389
-0.000487745
0.000859548
-0.000572725
0.000809099
-0.00065343
0.000760371
-0.000732802
0.000715065
-0.000814802
0.000675049
-0.000905168
0.000642654
-0.00101279
0.000620975
-0.00115198
0.000613877
-0.0013459
0.000625243
-0.00162904
0.000654387
-0.00204327
0.00068379
-0.00259173
0.000619789
-0.00312617
0.000163785
-0.00314166
-0.00132061
-0.00200765
-0.004098
-0.0062542
-8.55663e-05
0.000586063
-0.00021674
0.00101158
-0.000339385
0.00106253
-0.000446966
0.00101597
-0.000540188
0.000952769
-0.000623046
0.000891956
-0.000699388
0.000836714
-0.000772625
0.000788301
-0.000846296
0.00074872
-0.000925244
0.000721602
-0.00101813
0.000713859
-0.00114069
0.00073644
-0.00132224
0.000806797
-0.00160738
0.000939521
-0.00204891
0.00112532
-0.00262195
0.00119282
-0.00313645
0.00067829
-0.00303244
-0.00142462
-0.00186594
-0.00526451
-0.00812014
-0.0001495
0.000735562
-0.000293375
0.00115546
-0.000408971
0.00117813
-0.000504617
0.00111162
-0.000589856
0.00103801
-0.000667695
0.000969795
-0.000739422
0.000908442
-0.000805705
0.000854584
-0.000867779
0.000810794
-0.000927495
0.000781317
-0.000989515
0.000775879
-0.00106289
0.000809817
-0.00116931
0.000913213
-0.00133277
0.00110298
-0.00159578
0.00138833
-0.00190057
0.00149761
-0.00217671
0.000954437
-0.0021322
-0.00146914
-0.00144475
-0.00595195
-0.00956489
-0.000100585
0.000836147
-0.000309033
0.0013639
-0.000470147
0.00133924
-0.00059085
0.00123232
-0.000680544
0.0011277
-0.000748501
0.00103775
-0.000800941
0.000960881
-0.000840887
0.000894529
-0.000869275
0.000839183
-0.000883809
0.000795851
-0.000881424
0.000773494
-0.000854635
0.000783028
-0.00080252
0.000861099
-0.000709871
0.00101033
-0.000597963
0.00127642
-0.000493441
0.00139309
-0.000477038
0.000938034
-0.000651446
-0.00129473
-0.000569089
-0.00603431
-0.010134
-0.000389594
0.00122574
-0.00049287
0.00146718
-0.00059263
0.001439
-0.000684646
0.00132433
-0.000733718
0.00117678
-0.000748438
0.00105247
-0.000737793
0.000950236
-0.000705184
0.000861921
-0.000656005
0.000790004
-0.000585621
0.000725467
-0.000493555
0.000681428
-0.000361596
0.000651069
-0.000170072
0.000669576
0.000111838
0.000728424
0.000532204
0.000856054
0.00102052
0.000904774
0.0015342
0.000424358
0.00144113
-0.00120166
0.000821053
-0.00541423
-0.00931292
-0.00133476
0.00256051
-0.00128867
0.00142108
-0.00104527
0.0011956
-0.000696675
0.000975742
-0.000326944
0.000807045
4.19309e-05
0.000683597
0.000396419
0.000595748
0.000730869
0.000527471
0.00104792
0.000472956
0.00134605
0.000427337
0.0016349
0.000392578
0.00192203
0.000363937
0.00223849
0.000353113
0.00261275
0.000354159
0.0031353
0.000333505
0.00377275
0.000267326
0.00435085
-0.00015374
0.00431243
-0.00116324
0.00269169
-0.00379349
-0.00662123
0.00256051
0.00398159
0.00517719
0.00615293
0.00695998
0.00764357
0.00823932
0.00876679
0.00923975
0.00966709
0.0100597
0.0104236
0.0107767
0.0111309
0.0114644
0.0117317
0.011578
0.0104147
0.00662123
)
;

boundaryField
{
    movingWall
    {
        type            calculated;
        value           uniform 0;
    }
    fixedWalls
    {
        type            calculated;
        value           uniform 0;
    }
    frontAndBack
    {
        type            empty;
        value           nonuniform List<scalar> 0();
    }
}


// ************************************************************************* //
