/*--------------------------------*- C++ -*----------------------------------*\
  =========                 |
  \\      /  F ield         | OpenFOAM: The Open Source CFD Toolbox
   \\    /   O peration     | Website:  https://openfoam.org
    \\  /    A nd           | Version:  10
     \\/     M anipulation  |
\*---------------------------------------------------------------------------*/
FoamFile
{
    format      ascii;
    class       volScalarField;
    location    "3.925";
    object      p;
}
// * * * * * * * * * * * * * * * * * * * * * * * * * * * * * * * * * * * * * //

dimensions      [0 2 -2 0 0 0 0];

internalField   nonuniform List<scalar> 
400
(
-1.38004e-09
-3.06912e-05
-1.00985e-05
3.63259e-05
0.000114665
0.0002255
0.000369233
0.000546021
0.00075519
0.000994783
0.00126112
0.00154837
0.00184815
0.0021493
0.00243807
0.00269871
0.00291416
0.00306811
0.00315815
0.00313851
3.09166e-05
-8.61223e-07
2.09755e-05
6.52924e-05
0.000139593
0.000245064
0.000382519
0.000552483
0.000754651
0.000987459
0.00124763
0.00152943
0.00182534
0.00212426
0.00241248
0.00267406
0.00289145
0.0030482
0.00314297
0.00312203
6.70761e-06
-3.01147e-05
-9.94413e-06
3.16334e-05
0.000102892
0.00020525
0.000339919
0.000507963
0.000709685
0.000944152
0.0012087
0.00149881
0.00180658
0.00212091
0.00242743
0.00270884
0.00294523
0.00311709
0.0032221
0.00319665
-4.87754e-05
-8.98951e-05
-7.20373e-05
-3.40939e-05
3.31414e-05
0.000131486
0.000262796
0.000428954
0.000631226
0.000869739
0.00114289
0.0014468
0.00177495
0.00211605
0.0024546
0.00277076
0.00304079
0.00323997
0.00336382
0.00333645
-0.000141317
-0.000187147
-0.000172345
-0.000138943
-7.66397e-05
1.69155e-05
0.000144424
0.000308869
0.000512832
0.000757941
0.00104417
0.00136905
0.00172726
0.00210779
0.00249417
0.00286355
0.0031864
0.00342944
0.00358393
0.00355677
-0.000271075
-0.000322615
-0.000311782
-0.00028424
-0.000228427
-0.00014135
-1.92626e-05
0.000142212
0.000347364
0.000599841
0.000901832
0.00125302
0.00165067
0.00208448
0.00253735
0.00298293
0.00338408
0.00369444
0.00389708
0.00387396
-0.000438144
-0.000496676
-0.000490969
-0.000471178
-0.000424289
-0.0003466
-0.000233152
-7.789e-05
0.000125637
0.000383737
0.000701653
0.00108188
0.00152697
0.00202777
0.00256831
0.00311903
0.00363345
0.00404613
0.0043243
0.00431454
-0.000642964
-0.00071
-0.000710858
-0.000701317
-0.000666752
-0.000602757
-0.00050306
-0.000359708
-0.000163685
9.47345e-05
0.000425334
0.000837223
0.00133049
0.00190975
0.00256074
0.00325233
0.00392785
0.00449679
0.00489486
0.00492187
-0.000886076
-0.000963303
-0.000972352
-0.00097611
-0.000958239
-0.000913743
-0.000835053
-0.000712247
-0.000533537
-0.000285375
4.71108e-05
0.000478724
0.00102209
0.00168759
0.00247078
0.00334499
0.00424592
0.00505443
0.00564667
0.00576915
-0.00116811
-0.0012573
-0.00127612
-0.00129658
-0.00130059
-0.00128284
-0.00123464
-0.00114426
-0.000997175
-0.000775814
-0.000459343
-2.42451e-05
0.000553563
0.00129941
0.00222698
0.00332587
0.00453398
0.00570691
0.00662478
0.00698515
-0.00149
-0.00159287
-0.00162251
-0.00166297
-0.00169449
-0.00171187
-0.00170568
-0.00166279
-0.0015665
-0.00139567
-0.00112366
-0.000717315
-0.000136363
0.00065592
0.00171549
0.0030651
0.00467142
0.00638849
0.00786923
0.00879339
-0.00185361
-0.00197144
-0.00201151
-0.00207443
-0.00213881
-0.00220017
-0.00224887
-0.00227113
-0.00224918
-0.00215996
-0.00197305
-0.00164776
-0.00113057
-0.000354512
0.000770645
0.00233497
0.00439582
0.00687821
0.00930224
0.011634
-0.0022632
-0.00239588
-0.00244296
-0.00252858
-0.00262976
-0.00274341
-0.00286013
-0.00296635
-0.00304496
-0.00307391
-0.00302358
-0.0028522
-0.00249957
-0.00187894
-0.000891069
0.000695803
0.00311161
0.00650238
0.0104687
0.0154815
-0.00272759
-0.00286917
-0.002912
-0.00301669
-0.00315763
-0.00333188
-0.00352924
-0.00373697
-0.00394097
-0.00412417
-0.00426414
-0.00432939
-0.00427057
-0.00400356
-0.00339073
-0.00227217
-0.000165385
0.00363748
0.00912097
0.0183585
-0.00327202
-0.00343198
-0.00345968
-0.00358149
-0.00375029
-0.00397405
-0.0042486
-0.0045648
-0.00491204
-0.00528068
-0.00566394
-0.0060575
-0.00645848
-0.00686324
-0.00728439
-0.00773099
-0.00790037
-0.00577202
-0.000638065
0.0137244
-0.00397542
-0.0039318
-0.00388431
-0.00396275
-0.00417387
-0.00449323
-0.004898
-0.00536706
-0.00588871
-0.00646102
-0.00709804
-0.00783633
-0.00875391
-0.00998856
-0.0118929
-0.0148956
-0.0196999
-0.0215842
-0.0184078
0.00189526
-0.004451
-0.00491556
-0.00475802
-0.0049443
-0.00514183
-0.00545055
-0.00586792
-0.00638605
-0.00699966
-0.00771259
-0.00855312
-0.00959601
-0.0110229
-0.0131069
-0.0167731
-0.0222418
-0.033109
-0.0408564
-0.0376841
-0.00642093
-0.00765036
-0.00514266
-0.00473662
-0.00447661
-0.00473351
-0.00524346
-0.00592658
-0.00670658
-0.00756655
-0.00849217
-0.00953468
-0.0107469
-0.0124562
-0.0147815
-0.0195099
-0.0258464
-0.0382656
-0.046537
-0.0406257
0.0116068
-0.00448533
-0.00737201
-0.00662001
-0.00700614
-0.00703579
-0.0072779
-0.00770605
-0.00829476
-0.00901318
-0.00984964
-0.0107814
-0.0118673
-0.0135173
-0.0155992
-0.0204665
-0.0266006
-0.0367263
-0.0372332
-0.0142289
0.0712444
-0.028956
-0.00410998
-0.00313595
-0.00281926
-0.00311304
-0.00387694
-0.00495402
-0.00605946
-0.00727539
-0.00841995
-0.00977113
-0.0110892
-0.0130364
-0.0153012
-0.0184148
-0.0203771
-0.0180624
0.00585965
0.0703108
0.208733
)
;

boundaryField
{
    movingWall
    {
        type            zeroGradient;
    }
    fixedWalls
    {
        type            zeroGradient;
    }
    frontAndBack
    {
        type            empty;
    }
}


// ************************************************************************* //
