/*--------------------------------*- C++ -*----------------------------------*\
  =========                 |
  \\      /  F ield         | OpenFOAM: The Open Source CFD Toolbox
   \\    /   O peration     | Website:  https://openfoam.org
    \\  /    A nd           | Version:  10
     \\/     M anipulation  |
\*---------------------------------------------------------------------------*/
FoamFile
{
    format      ascii;
    class       volVectorField;
    location    "3.925";
    object      U;
}
// * * * * * * * * * * * * * * * * * * * * * * * * * * * * * * * * * * * * * //

dimensions      [0 1 -1 0 0 0 0];

internalField   nonuniform List<vector> 
400
(
(-0.000119754 0.000116239 0)
(-0.000852972 0.000332204 0)
(-0.00201126 0.000380995 0)
(-0.00309345 0.000377945 0)
(-0.00414096 0.00036145 0)
(-0.00511875 0.000338057 0)
(-0.00600299 0.000307308 0)
(-0.00677148 0.000267733 0)
(-0.00739971 0.000217928 0)
(-0.00786136 0.000156758 0)
(-0.00812919 8.35671e-05 0)
(-0.00817594 -1.28213e-06 0)
(-0.0079764 -9.77012e-05 0)
(-0.00751069 -0.000202706 0)
(-0.00676797 -0.000311757 0)
(-0.00574965 -0.000418262 0)
(-0.00447914 -0.00051196 0)
(-0.0030271 -0.000573025 0)
(-0.00137557 -0.000542979 0)
(-0.000240937 -0.000253752 0)
(-0.000349643 0.000857534 0)
(-0.00175362 0.00169969 0)
(-0.00376144 0.00187276 0)
(-0.00564373 0.00183418 0)
(-0.00744501 0.00172799 0)
(-0.00910568 0.00158206 0)
(-0.0105826 0.00139836 0)
(-0.011838 0.00117473 0)
(-0.0128335 0.000908889 0)
(-0.0135303 0.00059929 0)
(-0.01389 0.000245605 0)
(-0.0138774 -0.000151009 0)
(-0.0134605 -0.000582913 0)
(-0.0126153 -0.0010382 0)
(-0.0113327 -0.00149882 0)
(-0.00962142 -0.00193877 0)
(-0.00752384 -0.0023186 0)
(-0.00514429 -0.0025612 0)
(-0.00247265 -0.00245196 0)
(-0.000520969 -0.0013566 0)
(-0.000421249 0.00207923 0)
(-0.00205093 0.0037467 0)
(-0.00434806 0.00406859 0)
(-0.00649481 0.00396431 0)
(-0.00854384 0.0037145 0)
(-0.0104292 0.00337587 0)
(-0.0121035 0.00295543 0)
(-0.0135258 0.00245203 0)
(-0.0146546 0.00186384 0)
(-0.0154481 0.00118998 0)
(-0.0158663 0.00043184 0)
(-0.015867 -0.000405836 0)
(-0.0154117 -0.00130946 0)
(-0.0144726 -0.00225522 0)
(-0.0130344 -0.00320676 0)
(-0.0111006 -0.00411195 0)
(-0.00871192 -0.00489255 0)
(-0.00598304 -0.00539442 0)
(-0.00289895 -0.00519905 0)
(-0.000621279 -0.00305129 0)
(-0.000446879 0.00331312 0)
(-0.00218589 0.00583747 0)
(-0.00463754 0.00630859 0)
(-0.00692525 0.00613565 0)
(-0.00911203 0.00574225 0)
(-0.01113 0.00521343 0)
(-0.0129316 0.00456043 0)
(-0.0144758 0.00378242 0)
(-0.0157199 0.00287698 0)
(-0.0166206 0.00184257 0)
(-0.0171333 0.000680702 0)
(-0.0172116 -0.000600642 0)
(-0.0168067 -0.00198685 0)
(-0.0158754 -0.00344512 0)
(-0.0143872 -0.0049229 0)
(-0.0123303 -0.00634134 0)
(-0.00973457 -0.00757784 0)
(-0.0067212 -0.00838955 0)
(-0.00326936 -0.008128 0)
(-0.000701465 -0.00484928 0)
(-0.000469745 0.00462495 0)
(-0.00231672 0.0080651 0)
(-0.00492764 0.00869485 0)
(-0.00736394 0.00845173 0)
(-0.00969971 0.00791181 0)
(-0.0118658 0.00719002 0)
(-0.0138159 0.00630193 0)
(-0.0155097 0.00524654 0)
(-0.0169048 0.00401986 0)
(-0.0179557 0.00261783 0)
(-0.018613 0.00103913 0)
(-0.0188223 -0.00071068 0)
(-0.0185214 -0.00261669 0)
(-0.0176463 -0.00464146 0)
(-0.0161409 -0.0067198 0)
(-0.0139646 -0.00874545 0)
(-0.0111226 -0.0105423 0)
(-0.00774002 -0.0117547 0)
(-0.00379045 -0.0114572 0)
(-0.000817628 -0.00690615 0)
(-0.000499286 0.00602131 0)
(-0.00248102 0.0104486 0)
(-0.00528996 0.0112502 0)
(-0.00791169 0.0109367 0)
(-0.0104333 0.0102491 0)
(-0.0127846 0.00933448 0)
(-0.0149216 0.00821302 0)
(-0.0168064 0.00688298 0)
(-0.0183977 0.00533741 0)
(-0.0196493 0.00356725 0)
(-0.0205074 0.00156443 0)
(-0.0209095 -0.000673237 0)
(-0.0207754 -0.00313912 0)
(-0.0200127 -0.00579794 0)
(-0.0185281 -0.00857746 0)
(-0.0162345 -0.011345 0)
(-0.0130907 -0.013861 0)
(-0.00921256 -0.0156217 0)
(-0.00456377 -0.0153476 0)
(-0.000997944 -0.00933792 0)
(-0.000537072 0.0075229 0)
(-0.00268669 0.0130236 0)
(-0.00573983 0.0140123 0)
(-0.00858839 0.0136275 0)
(-0.0113357 0.0127905 0)
(-0.0139111 0.0116838 0)
(-0.0162744 0.0103329 0)
(-0.0183922 0.0087349 0)
(-0.0202273 0.0068785 0)
(-0.021735 0.00474663 0)
(-0.0228592 0.00231945 0)
(-0.0235309 -0.000421007 0)
(-0.0236506 -0.00348288 0)
(-0.0230901 -0.00685035 0)
(-0.0217044 -0.0104568 0)
(-0.0193337 -0.0141512 0)
(-0.015853 -0.017622 0)
(-0.0113354 -0.0201702 0)
(-0.0057216 -0.0200344 0)
(-0.00128466 -0.0123317 0)
(-0.000583576 0.00915514 0)
(-0.00293702 0.0158329 0)
(-0.0062834 0.0170252 0)
(-0.00940023 0.0165653 0)
(-0.0124115 0.0155749 0)
(-0.0152466 0.0142763 0)
(-0.017872 0.0127013 0)
(-0.0202619 0.0108465 0)
(-0.022387 0.00869529 0)
(-0.0242093 0.00621975 0)
(-0.0256757 0.00338234 0)
(-0.0267122 0.000139856 0)
(-0.0272053 -0.0035415 0)
(-0.0269893 -0.00768989 0)
(-0.0258481 -0.0122689 0)
(-0.023516 -0.0171324 0)
(-0.0197245 -0.0218996 0)
(-0.0144257 -0.0256224 0)
(-0.00750846 -0.0258476 0)
(-0.00176739 -0.0161895 0)
(-0.000639959 0.0109453 0)
(-0.003237 0.0189225 0)
(-0.00692876 0.0203334 0)
(-0.0103543 0.0197895 0)
(-0.0136642 0.0186374 0)
(-0.016789 0.0171448 0)
(-0.019705 0.0153524 0)
(-0.0223988 0.0132576 0)
(-0.0248546 0.0108385 0)
(-0.0270484 0.00805492 0)
(-0.0289393 0.004847 0)
(-0.0304546 0.00113751 0)
(-0.0314807 -0.00315858 0)
(-0.0318212 -0.00813569 0)
(-0.0311741 -0.0138337 0)
(-0.029129 -0.0201628 0)
(-0.0251903 -0.026707 0)
(-0.0190297 -0.0322236 0)
(-0.0104219 -0.0332526 0)
(-0.00265264 -0.0214406 0)
(-0.000709025 0.0129248 0)
(-0.0035962 0.0223426 0)
(-0.00769022 0.0239821 0)
(-0.0114634 0.0233363 0)
(-0.0151008 0.022007 0)
(-0.0185363 0.0203143 0)
(-0.0217602 0.0183112 0)
(-0.0247767 0.0159984 0)
(-0.0275905 0.0133513 0)
(-0.0302015 0.010318 0)
(-0.0325938 0.00681489 0)
(-0.0347183 0.00272222 0)
(-0.0364797 -0.0021194 0)
(-0.0376707 -0.00790658 0)
(-0.037917 -0.0148245 0)
(-0.036633 -0.0229373 0)
(-0.0329947 -0.0318982 0)
(-0.0261268 -0.0401682 0)
(-0.0155491 -0.0428998 0)
(-0.00444169 -0.0291059 0)
(-0.000796731 0.0151334 0)
(-0.00403252 0.0261519 0)
(-0.008593 0.0280185 0)
(-0.0127501 0.0272381 0)
(-0.0167358 0.0257041 0)
(-0.02049 0.0237975 0)
(-0.0240222 0.0215877 0)
(-0.02736 0.0190826 0)
(-0.0305363 0.0162595 0)
(-0.0335861 0.01306 0)
(-0.0365366 0.00937949 0)
(-0.0393908 0.00505169 0)
(-0.0421128 -0.000169791 0)
(-0.0445392 -0.00660516 0)
(-0.0462768 -0.0146931 0)
(-0.0465924 -0.0248181 0)
(-0.0442604 -0.0369357 0)
(-0.0375211 -0.0493409 0)
(-0.0253173 -0.0555268 0)
(-0.0083895 -0.0414214 0)
(-0.000915363 0.0176276 0)
(-0.00457865 0.0304216 0)
(-0.00968038 0.0324915 0)
(-0.014253 0.0315207 0)
(-0.0185954 0.0297367 0)
(-0.0226585 0.0275901 0)
(-0.0264768 0.0251703 0)
(-0.0301064 0.0224979 0)
(-0.0336149 0.0195593 0)
(-0.0370837 0.016301 0)
(-0.0406049 0.0126133 0)
(-0.044272 0.00830224 0)
(-0.0481452 0.00304767 0)
(-0.0522245 -0.00364077 0)
(-0.0562736 -0.0125213 0)
(-0.059572 -0.0245497 0)
(-0.0605665 -0.040381 0)
(-0.0563369 -0.0586176 0)
(-0.0447072 -0.0717073 0)
(-0.0174962 -0.0629808 0)
(-0.00109111 0.0204933 0)
(-0.00529529 0.0352439 0)
(-0.0110247 0.037445 0)
(-0.0160346 0.0361922 0)
(-0.020724 0.0340921 0)
(-0.0250624 0.031665 0)
(-0.0291164 0.0290206 0)
(-0.0329728 0.0261968 0)
(-0.0367353 0.0231994 0)
(-0.0405345 0.0199965 0)
(-0.0445382 0.0165006 0)
(-0.0489619 0.0125293 0)
(-0.0540715 0.0077334 0)
(-0.0601732 0.00147 0)
(-0.0674899 -0.00729947 0)
(-0.0757934 -0.0202047 0)
(-0.0835928 -0.0392615 0)
(-0.0867333 -0.0649042 0)
(-0.0797391 -0.0914015 0)
(-0.0345157 -0.103108 0)
(-0.00137856 0.0238549 0)
(-0.00630966 0.0407962 0)
(-0.0127557 0.0430333 0)
(-0.0181879 0.0413757 0)
(-0.0231823 0.0388226 0)
(-0.0277359 0.0360063 0)
(-0.0319471 0.0330763 0)
(-0.0359291 0.0300891 0)
(-0.0398162 0.0270708 0)
(-0.0437831 0.0240289 0)
(-0.0480731 0.0209488 0)
(-0.0530438 0.0177542 0)
(-0.0592275 0.014212 0)
(-0.0673774 0.00974585 0)
(-0.078522 0.00317419 0)
(-0.0938056 -0.00781785 0)
(-0.112529 -0.0276085 0)
(-0.127696 -0.0629843 0)
(-0.125805 -0.116476 0)
(-0.0495306 -0.176841 0)
(-0.00179228 0.0281608 0)
(-0.00757517 0.0465837 0)
(-0.0149564 0.0484096 0)
(-0.0208591 0.0460272 0)
(-0.0261485 0.0430726 0)
(-0.0308113 0.040035 0)
(-0.0350316 0.0369786 0)
(-0.0389719 0.0339314 0)
(-0.0427803 0.0309459 0)
(-0.0466267 0.0280988 0)
(-0.050761 0.025499 0)
(-0.0556162 0.0232653 0)
(-0.0619659 0.0214872 0)
(-0.0711194 0.0200168 0)
(-0.0852181 0.0180359 0)
(-0.107196 0.0124566 0)
(-0.136909 -0.00506471 0)
(-0.158959 -0.0572797 0)
(-0.154238 -0.162158 0)
(-0.0411209 -0.288054 0)
(-0.00371151 0.0321221 0)
(-0.0114465 0.0558888 0)
(-0.0185024 0.0573157 0)
(-0.0242439 0.0544262 0)
(-0.029263 0.0503155 0)
(-0.0338478 0.0461463 0)
(-0.0380337 0.0421671 0)
(-0.0418947 0.0384742 0)
(-0.045509 0.0351471 0)
(-0.0489946 0.0322963 0)
(-0.0525512 0.0301547 0)
(-0.0565443 0.0291202 0)
(-0.0617125 0.0298656 0)
(-0.0694179 0.0330694 0)
(-0.0822359 0.0387897 0)
(-0.1027 0.0415277 0)
(-0.131707 0.026468 0)
(-0.147016 -0.0555146 0)
(-0.140947 -0.225668 0)
(-0.020852 -0.395977 0)
(-0.00148518 0.0461934 0)
(-0.00968852 0.0588233 0)
(-0.0217717 0.0580776 0)
(-0.0281917 0.0533277 0)
(-0.0342323 0.0495845 0)
(-0.0386912 0.0461575 0)
(-0.0422362 0.0429187 0)
(-0.0451342 0.0397808 0)
(-0.0475425 0.0368389 0)
(-0.049524 0.0342201 0)
(-0.0511028 0.0323345 0)
(-0.052284 0.0317303 0)
(-0.0533151 0.0337102 0)
(-0.054441 0.0392417 0)
(-0.0578486 0.0496618 0)
(-0.0618354 0.0551462 0)
(-0.0796407 0.0397697 0)
(-0.0817292 -0.0612693 0)
(-0.0893095 -0.274546 0)
(-0.00411988 -0.472278 0)
(-0.0113902 0.0363639 0)
(-0.0256906 0.0821013 0)
(-0.0268311 0.0790519 0)
(-0.0346047 0.073331 0)
(-0.0380986 0.0657184 0)
(-0.0400917 0.0586629 0)
(-0.040593 0.0524005 0)
(-0.040142 0.0468721 0)
(-0.0390217 0.0420843 0)
(-0.0372376 0.0379761 0)
(-0.035011 0.0347956 0)
(-0.0317831 0.0331182 0)
(-0.0279389 0.0342979 0)
(-0.0208229 0.039239 0)
(-0.0143463 0.0513633 0)
(0.00570998 0.0592423 0)
(0.0119807 0.0510582 0)
(0.045294 -0.0450865 0)
(0.00773694 -0.28233 0)
(0.0390046 -0.499167 0)
(-0.075435 0.0995832 0)
(-0.0604191 0.0628383 0)
(-0.0616164 0.0613883 0)
(-0.0413923 0.0544717 0)
(-0.0246222 0.0472883 0)
(-0.0061454 0.0416365 0)
(0.0110531 0.037235 0)
(0.0274606 0.0332691 0)
(0.0421156 0.0300406 0)
(0.0563572 0.0267495 0)
(0.0685832 0.0244557 0)
(0.081753 0.0221631 0)
(0.0919916 0.0218075 0)
(0.110778 0.0219217 0)
(0.117863 0.0229517 0)
(0.163683 0.0213622 0)
(0.164134 -0.00518384 0)
(0.223241 -0.0644035 0)
(0.161229 -0.257901 0)
(0.127082 -0.444416 0)
(0.120422 0.140229 0)
(0.154021 0.0865992 0)
(0.23321 0.0644528 0)
(0.288726 0.0493445 0)
(0.332037 0.0388133 0)
(0.370284 0.0310809 0)
(0.400736 0.0256694 0)
(0.431313 0.0215573 0)
(0.451912 0.01821 0)
(0.479066 0.016049 0)
(0.490737 0.0132495 0)
(0.518243 0.012373 0)
(0.520196 0.0101091 0)
(0.552985 0.0096352 0)
(0.54293 0.00867182 0)
(0.582217 0.00419383 0)
(0.552248 -0.00266285 0)
(0.569769 -0.0294036 0)
(0.438014 -0.082525 0)
(0.277931 -0.156426 0)
)
;

boundaryField
{
    movingWall
    {
        type            fixedValue;
        value           uniform (1 0 0);
    }
    fixedWalls
    {
        type            noSlip;
    }
    frontAndBack
    {
        type            empty;
    }
}


// ************************************************************************* //
