/*--------------------------------*- C++ -*----------------------------------*\
  =========                 |
  \\      /  F ield         | OpenFOAM: The Open Source CFD Toolbox
   \\    /   O peration     | Website:  https://openfoam.org
    \\  /    A nd           | Version:  10
     \\/     M anipulation  |
\*---------------------------------------------------------------------------*/
FoamFile
{
    format      ascii;
    class       surfaceScalarField;
    location    "2.5";
    object      phi;
}
// * * * * * * * * * * * * * * * * * * * * * * * * * * * * * * * * * * * * * //

dimensions      [0 3 -1 0 0 0 0];

internalField   nonuniform List<scalar> 
928
(
0.0963982
0.00360179
0.103856
-0.00745819
0.106665
-0.00280858
-0.010307
0.116972
0.0951618
0.00843999
0.106166
-0.0184621
0.102931
0.000425647
-0.0202759
0.1129
0.0955318
0.0129082
0.10745
-0.0303804
0.103631
0.0042447
-0.0405948
0.12395
0.102762
0.0101466
0.0945253
-0.0221441
0.0992751
-0.000505064
0.146505
-0.0878252
0.111317
0.00565471
-0.0166719
0.127989
0.108603
0.00995255
-0.0422814
0.134212
0.124049
0.00985321
-0.0451475
0.126915
0.156359
0.111211
0.127578
0.000411418
0.127977
-0.000398785
0.129489
-0.00151282
-0.0011213
0.130611
0.133385
0.00123862
0.133514
-0.000527743
0.134971
-0.0029701
-0.0015524
0.135402
0.129744
-0.00158952
0.136669
-0.00745295
0.133504
0.000194495
0.00220315
0.129749
0.104933
0.00468864
0.114113
-0.0166331
0.111549
0.00275851
0.0976843
0.016068
0.131647
-0.00103679
0.132009
-0.000361063
0.132216
-0.000207591
0.131416
0.000800159
0.131096
0.000319913
0.129933
0.0011628
0.128709
0.00122428
0.127248
0.00146129
0.125267
0.00198019
0.123831
0.00143678
0.122241
0.00158933
0.121524
0.000717659
0.120659
0.000864922
0.121055
-0.000396452
0.121353
-0.000297863
0.121864
-0.000510741
0.122871
-0.00100684
0.122772
9.8835e-05
0.123074
-0.000302615
0.121859
0.00121532
0.121
0.000859293
0.118736
0.00226406
0.116034
0.00270167
0.11268
0.00335385
0.108456
0.00422419
0.105807
0.00264864
0.102312
0.00349545
0.102074
0.000237808
0.102225
-0.000151146
0.104869
-0.00264414
0.1082
-0.00333095
0.110529
-0.00232813
0.112772
-0.0022432
0.11173
0.00104205
0.11064
0.00108979
0.10756
0.0030802
0.104783
0.00277627
0.102819
0.0019645
0.101076
0.00174338
1.56749e-05
0.135677
-0.00131147
0.136001
-0.000685048
0.136579
-0.000786268
0.137645
-0.000265432
0.13757
0.000394758
0.136489
0.00224406
0.135544
0.00216973
0.134162
0.00284307
0.132465
0.00367717
0.131047
0.00285441
0.12946
0.00317605
0.12885
0.00132781
0.12867
0.00104489
0.128905
-0.000631186
0.129836
-0.00122877
0.131136
-0.00181085
0.132682
-0.00255239
0.133756
-0.000975562
0.134811
-0.00135762
0.13427
0.00175621
0.133836
0.00129297
0.132251
0.00384912
0.130043
0.0049096
0.127848
0.00554955
0.124585
0.00748663
0.121751
0.00548335
0.117667
0.00757903
0.115509
0.00239549
0.114824
0.000533742
0.116073
-0.00389235
0.119067
-0.00632564
0.121625
-0.00488534
0.124707
-0.00532552
0.125613
0.000135976
0.126479
0.000223393
0.124907
0.00465256
0.123284
0.00439942
0.121523
0.00372533
0.119783
0.00348331
-0.00010419
0.13185
-0.00341313
0.132413
-0.00124775
0.133726
-0.00209911
0.136049
-0.002589
0.133833
0.00261129
0.134411
0.00166619
0.134896
0.0016844
0.133456
0.0042833
0.13137
0.00576331
0.129744
0.00448048
0.128697
0.00422308
0.12734
0.00268476
0.126535
0.00184989
0.125646
0.000257662
0.126047
-0.00162959
0.127224
-0.00298779
0.128225
-0.00355348
0.130481
-0.00323214
0.131911
-0.00278746
0.134616
-0.000949053
0.136329
-0.000419651
0.137273
0.00290506
0.13668
0.00550241
0.133896
0.00833388
0.129442
0.0119402
0.122621
0.012305
0.118049
0.0121506
0.11457
0.00587482
0.112752
0.00235139
0.113616
-0.00475593
0.114671
-0.00738098
0.116725
-0.00693934
0.117966
-0.00656661
0.119565
-0.00146272
0.120171
-0.000382473
0.120575
0.00424821
0.121122
0.00385241
0.121455
0.0033924
0.120925
0.00401378
0.000996684
0.106198
-0.0119267
0.103036
0.00191394
0.103701
-0.0027639
0.107167
-0.00605514
0.0992347
0.0105437
0.106251
-0.00535057
0.109399
-0.00146285
0.104159
0.00952329
0.106282
0.00364037
0.106537
0.00422554
0.103979
0.00678102
0.0985885
0.00807496
0.093329
0.00710933
0.0896675
0.00391922
0.0875402
0.000497679
0.0859511
-0.00139866
0.0868699
-0.00447225
0.0896714
-0.0060337
0.0940723
-0.0071883
0.100137
-0.00701346
0.105599
-0.00588187
0.111686
-0.00318211
0.117695
-0.000506914
0.124583
0.00144579
0.13028
0.00624339
0.134865
0.00771978
0.137914
0.00910215
0.133552
0.0102366
0.125503
0.0104
0.113342
0.00740526
0.102818
0.00314294
0.095923
-4.40237e-05
0.0934383
-0.00408188
0.0942964
-0.0023208
0.0951028
-0.00118884
0.0958224
0.00352858
0.0933964
0.00627844
0.0876261
0.00916265
0.0804298
0.0112101
0.00372099
0.109543
0.000603721
0.0880219
-0.000623187
0.0869292
0.000587629
-0.000895998
0.111464
-0.0108606
0.0886019
0.0222393
0.0897776
-0.000588039
0.0888816
-0.00527851
0.00996714
0.0180637
-0.0399753
0.0176731
0.00314912
0.0367927
-0.00305157
-0.00197873
0.0119459
-0.0200354
-0.0219186
-0.0212836
0.00439731
0.0156728
-0.000163693
0.0106761
-0.0256543
-0.000208236
0.0127982
-0.00181396
-0.00115817
0.0110594
-0.0189285
0.00695172
0.0146513
0.00125256
0.000348582
0.012274
-0.0124843
0.0198911
0.00190616
0.0177048
0.00582664
0.0146038
0.00732656
0.0167562
0.00462866
0.0194156
0.00541552
0.0197519
0.00677305
0.020314
0.00335717
0.0220559
-0.00124425
0.0254197
-0.00476243
0.0281659
-0.0072185
0.0317951
-0.00966293
0.0352465
-0.0106397
0.0379379
-0.0097048
0.0416259
-0.00956987
0.0444331
-0.00598934
0.0450724
-0.00114625
0.0453436
0.00117457
0.0446781
0.00690896
0.0414738
0.0109241
0.0371248
0.0134511
0.0336368
0.0137246
0.0312933
0.0127436
0.030701
0.00799752
0.0321174
0.00172657
0.0345816
-0.00250823
0.0371119
-0.00661224
0.0404611
-0.00566991
0.0433175
-0.00404533
0.0442458
0.00260029
0.0457072
0.00481708
0.0465572
0.00831263
0.0464173
0.01135
0.00286294
-0.00673149
-0.00325002
0.00060445
0.0054623
0.0057243
-0.00627802
-0.00782521
-0.00537897
0.00498098
0.00184514
0.00699896
-0.0016694
-9.86752e-05
-0.00538663
0.0037747
-0.00196721
0.00564953
0.0039518
0.0108786
0.00209751
0.0134168
0.00209045
0.0161593
0.00267296
0.0202444
0.00268801
0.0237155
-0.000113992
0.0264498
-0.00397851
0.0274782
-0.00579083
0.0277626
-0.00750292
0.0265287
-0.00842902
0.0249643
-0.00907528
0.023331
-0.00807147
0.0214896
-0.00772849
0.0207261
-0.00522589
0.0206915
-0.00111163
0.0206214
0.00124474
0.0218913
0.00563904
0.025198
0.00761736
0.027623
0.0110261
0.0309797
0.0103679
0.0363234
0.00739984
0.0400307
0.00429021
0.0429232
-0.0011659
0.04424
-0.00382505
0.0447286
-0.00710081
0.045062
-0.00600327
0.0463563
-0.00533968
0.049396
-0.000439392
0.0531808
0.00103222
0.0584465
0.003047
0.064364
0.00543242
-2.32142e-05
0.102798
-0.0136589
0.0925947
0.0324428
0.0969214
-0.00491472
0.0405639
0.145239
0.0951005
-0.00875945
0.110118
0.0174258
0.103727
0.00147552
0.0187482
0.125543
0.0949616
-0.00372106
0.105604
0.00678357
0.103278
0.00380169
0.00921689
0.112809
0.0962789
0.103063
0.106864
0.116081
0.151968
-0.00672877
0.0479539
0.104014
0.12739
-0.00857614
0.0415069
0.133837
0.109653
-0.00541994
0.0167476
0.134412
0.110661
0.127409
0.111117
0.0048427
0.0858664
0.00333211
0.0872755
0.00298817
0.000129684
0.0869821
0.137606
0.00107461
0.139365
0.00157235
0.141398
0.000954964
0.00162097
0.139907
0.135603
-0.000115987
0.136591
0.000583655
0.136216
0.00133061
0.00113219
0.136705
0.127293
0.127876
0.129207
0.130339
0.0839104
-0.000178294
0.0896455
-0.000272756
0.0847561
-0.00138868
0.0804666
-0.00108948
0.0829453
-0.000633535
0.081889
-0.000613101
0.0777648
-0.00126242
0.0775612
-0.00176364
0.0806734
0.000839635
0.0823316
0.000439295
0.0842315
0.000190575
0.0886549
-0.00175044
0.0937914
-0.0024485
0.098507
-0.00482961
0.100507
-0.00597861
0.100787
-0.0060711
0.099359
-0.00607454
0.0947597
-0.00382975
0.0891686
-0.00348417
0.0817515
-0.000654355
0.0745674
-0.000544405
0.0677043
0.00163723
0.0644596
0.0021331
0.0634259
0.00227843
0.0645817
0.0044832
0.0695161
0.00268299
0.0755041
0.00503807
0.0838193
0.00205271
0.0915437
-0.000324566
0.0999193
-0.00408534
0.107706
-0.00895221
0.111036
-0.00715522
0.113567
-0.00963169
0.111646
-0.00408249
0.11005
-0.00374406
0.107782
0.00182892
0.105922
0.00289231
0.106903
0.00206591
0.109112
0.00322357
-0.00288546
0.137775
0.00195427
0.136852
0.0006494
0.13641
-0.000946116
0.136538
-0.00121707
0.138093
-0.00218919
0.137518
-3.81128e-05
0.135751
0.000505006
0.134805
-0.000818027
0.135404
0.000241129
0.136945
-0.00110203
0.137238
-0.000102497
0.138502
-0.00301441
0.139135
-0.00308098
0.139403
-0.00509824
0.138755
-0.00533059
0.137685
-0.00500108
0.137346
-0.00573579
0.136165
-0.00264885
0.135979
-0.00329737
0.134654
0.00067061
0.132908
0.0012008
0.131298
0.00324745
0.129249
0.00418236
0.128533
0.00299445
0.12791
0.00510572
0.128401
0.00219271
0.130082
0.00335642
0.132981
-0.000845958
0.135499
-0.00284237
0.136877
-0.00546334
0.136116
-0.00819176
0.13516
-0.00619847
0.133204
-0.00767595
0.13181
-0.00268901
0.129972
-0.00190555
0.130011
0.00178945
0.130256
0.0026479
0.130341
0.00198028
0.131932
0.00163305
-0.00247344
0.138012
0.000646827
0.137928
0.000733132
0.137663
-0.000680987
0.137232
-0.000786424
0.136569
-0.00152521
0.137093
-0.000562226
0.137354
0.0002434
0.136708
-0.000171974
0.137089
-0.000139441
0.136996
-0.0010088
0.137189
-0.000296444
0.136005
-0.00183039
0.134703
-0.00177825
0.132554
-0.00294951
0.130332
-0.00310819
0.128061
-0.00273048
0.125125
-0.0027995
0.123902
-0.00142614
0.122361
-0.00175632
0.122745
0.000286546
0.123542
0.000403971
0.125185
0.00160445
0.127327
0.00203993
0.128602
0.00171944
0.131287
0.00242084
0.132357
0.00112332
0.134417
0.00129548
0.134389
-0.000817805
0.133299
-0.00175238
0.131466
-0.00362963
0.127543
-0.00426911
0.125177
-0.00383244
0.121217
-0.00371615
0.119556
-0.00102811
0.118556
-0.000905029
0.118746
0.00159916
0.120203
0.00119102
0.120788
0.00139499
0.122134
0.000287525
-0.00206537
0.130986
0.131719
0.131038
0.130252
0.128727
0.128164
0.128408
0.128236
0.128096
0.127087
0.126791
0.124961
0.123182
0.120233
0.117125
0.114394
0.111595
0.110169
0.108412
0.108699
0.109103
0.110707
0.112747
0.114467
0.116887
0.118011
0.119306
0.118488
0.116736
0.113106
0.108837
0.105005
0.101289
0.100261
0.0993556
0.100955
0.102146
0.103541
0.103828
)
;

boundaryField
{
    inlet
    {
        type            calculated;
        value           nonuniform List<scalar> 10(-0.1 -0.1 -0.1 -0.1 -0.1 -0.1 -0.1 -0.1 -0.1 -0.1);
    }
    outlet
    {
        type            calculated;
        value           nonuniform List<scalar> 10(0.10106 0.119903 0.119824 0.0777055 0.0472754 0.0672502 0.111974 0.13152 0.121726 0.101763);
    }
    obstacle
    {
        type            calculated;
        value           uniform 0;
    }
    upperWall
    {
        type            calculated;
        value           uniform 0;
    }
    lowerWall
    {
        type            calculated;
        value           uniform 0;
    }
    frontAndBack
    {
        type            empty;
        value           nonuniform List<scalar> 0();
    }
}


// ************************************************************************* //
