/*--------------------------------*- C++ -*----------------------------------*\
  =========                 |
  \\      /  F ield         | OpenFOAM: The Open Source CFD Toolbox
   \\    /   O peration     | Website:  https://openfoam.org
    \\  /    A nd           | Version:  10
     \\/     M anipulation  |
\*---------------------------------------------------------------------------*/
FoamFile
{
    format      ascii;
    class       volScalarField;
    location    "0.75";
    object      p;
}
// * * * * * * * * * * * * * * * * * * * * * * * * * * * * * * * * * * * * * //

dimensions      [0 2 -2 0 0 0 0];

internalField   nonuniform List<scalar> 
8000
(
7.96579e-10
5.68903e-05
0.000204057
0.000431931
0.000735068
0.00110598
0.00153547
0.00201286
0.00252632
0.00306306
0.00360961
0.00415207
0.00467642
0.00516881
0.00561593
0.00600537
0.00632604
0.00656866
0.00672625
0.00678818
-5.62962e-05
1.33552e-06
0.000150935
0.000382436
0.000690389
0.0010672
0.00150354
0.00198858
0.00251034
0.00305587
0.0036115
0.00416316
0.00469661
0.00519777
0.00565307
0.00604982
0.00637667
0.00662407
0.00678491
0.00684798
-0.000206734
-0.000146869
9.16471e-06
0.000250612
0.00057175
0.000964616
0.00141947
0.00192509
0.00246903
0.00303791
0.00361761
0.00419353
0.00475092
0.0052751
0.00575186
0.00616781
0.00651086
0.00677079
0.00693993
0.00700612
-0.000448695
-0.000384953
-0.000218499
3.90195e-05
0.000381405
0.000800109
0.00128472
0.00182333
0.0024028
0.00300904
0.00362721
0.00424197
0.00483771
0.00539884
0.00591009
0.00635697
0.00672619
0.00700643
0.00718902
0.00726058
-0.0007887
-0.000719388
-0.000538163
-0.00025793
0.000114408
0.000569422
0.00109574
0.00168049
0.00230957
0.00296795
0.00363984
0.00430887
0.00495835
0.0055714
0.00613133
0.00662205
0.00702859
0.00733789
0.00753985
0.00761923
-0.0012358
-0.00115904
-0.000958177
-0.000647847
-0.00023597
0.000266788
0.000847757
0.00149278
0.00218653
0.00291282
0.00365471
0.00439461
0.00511448
0.00579587
0.00642027
0.00696944
0.00742605
0.00777464
0.00800293
0.00809307
-0.00180195
-0.00171556
-0.00148943
-0.00114058
-0.000678352
-0.00011512
0.000534723
0.00125539
0.00203008
0.00284124
0.00367065
0.0044994
0.0053079
0.00607591
0.00678265
0.00740715
0.00792892
0.00832913
0.00859235
0.00869693
-0.00250255
-0.0024039
-0.0021458
-0.00174852
-0.00122346
-0.000585302
0.000149286
0.000962495
0.00183579
0.00275013
0.00368597
0.00462309
0.00554033
0.00641546
0.00722509
0.00794487
0.00855015
0.00901737
0.00932647
0.00945037
-0.00335726
-0.00324298
-0.00294463
-0.00248692
-0.00188422
-0.00115443
-0.000317155
0.000607291
0.00159841
0.00263565
0.00369824
0.00476487
0.00581297
0.00681834
0.00775475
0.00859379
0.0093054
0.00985946
0.010229
0.010379
-0.00439105
-0.00425662
-0.00390736
-0.0033742
-0.00267587
-0.00183473
-0.000874267
0.000182196
0.00131201
0.0024932
0.00370411
0.00492285
0.00612594
0.00728757
0.00837866
0.00936613
0.0102131
0.0108803
0.0113305
0.0115167
-0.00563603
-0.00547488
-0.00506044
-0.00443237
-0.00361593
-0.00263974
-0.00153237
-0.000320758
0.000970197
0.00231746
0.00369913
0.00509355
0.00647739
0.0078242
0.00910246
0.0102742
0.0112941
0.0121105
0.0126704
0.0129084
-0.00713418
-0.00693601
-0.00643654
-0.00568738
-0.00472395
-0.00358367
-0.00230165
-0.000909145
0.000566775
0.00210269
0.00367753
0.0052713
0.00686246
0.00842561
0.00992844
0.0113284
0.0125706
0.0135868
0.0142994
0.0146162
-0.00894215
-0.00868957
-0.00807625
-0.00716943
-0.0060209
-0.00468012
-0.00319068
-0.00158881
9.67045e-05
0.00184321
0.00363229
0.00544756
0.00727176
0.00908344
0.0108524
0.012534
0.0140635
0.0153523
0.0162843
0.0167272
-0.0111394
-0.0108018
-0.0100306
-0.00891292
-0.00752753
-0.00593983
-0.00420438
-0.00236218
-0.000442562
0.00153444
0.00355535
0.00561029
0.00768978
0.00978048
0.0118592
0.0138846
0.0157867
0.0174552
0.0187102
0.0193717
-0.0138363
-0.0133605
-0.0123642
-0.010955
-0.00926092
-0.00736741
-0.00534072
-0.00322532
-0.00104876
0.00117434
0.00343846
0.00574367
0.00809275
0.0104864
0.0129161
0.0153538
0.0177338
0.0199412
0.021675
0.0227666
-0.0173097
-0.0164995
-0.0151607
-0.0133305
-0.0112292
-0.0089551
-0.00658527
-0.0041636
-0.00171148
0.000765815
0.00327455
0.00582849
0.00844762
0.0111537
0.0139638
0.0168783
0.0198556
0.0228232
0.0252674
0.0272827
-0.0212878
-0.0202232
-0.0184729
-0.0160543
-0.0134172
-0.0106723
-0.00790356
-0.00514622
-0.00240866
0.000319247
0.00306002
0.00584459
0.00871296
0.0117146
0.0149045
0.0183294
0.0220009
0.0260407
0.0294119
0.0333468
-0.0292317
-0.0252617
-0.0226452
-0.0191789
-0.0157774
-0.0124446
-0.00922322
-0.0061143
-0.00309741
-0.000139052
0.00280294
0.00577853
0.00884731
0.0120965
0.0156415
0.0196465
0.0242423
0.0300545
0.0351768
0.0432065
-0.0345691
-0.0308978
-0.0271245
-0.0225952
-0.0182728
-0.0142249
-0.0104951
-0.00702519
-0.00374752
-0.000594627
0.00250024
0.00560765
0.00879603
0.0121572
0.0157992
0.019925
0.0243376
0.0316795
0.0357196
0.0515133
-0.063054
-0.0353129
-0.0309277
-0.0246928
-0.0194537
-0.0150471
-0.0110901
-0.00745586
-0.00406061
-0.000822426
0.00233529
0.00548923
0.00873312
0.0121977
0.0160849
0.0209736
0.0270886
0.0384167
0.0503407
0.0913015
3.14806e-07
5.53968e-05
0.000202308
0.00043015
0.000733407
0.00110454
0.00153429
0.00201201
0.00252582
0.00306294
0.00360988
0.00415274
0.00467749
0.00517027
0.00561774
0.00600747
0.00632834
0.00657098
0.00672833
0.00678843
-5.41193e-05
1.63487e-06
0.0001509
0.000382228
0.000690125
0.00106695
0.00150332
0.00198843
0.00251028
0.00305591
0.00361166
0.00416344
0.00469702
0.00519832
0.00565374
0.00605058
0.00637745
0.00662474
0.00678527
0.00684641
-0.000203999
-0.000146134
9.53613e-06
0.000250778
0.000571807
0.000964641
0.00141949
0.00192512
0.00246909
0.00303801
0.00361776
0.00419375
0.00475122
0.00527549
0.00575232
0.00616832
0.00651136
0.00677115
0.00693994
0.00700408
-0.000445522
-0.00038393
-0.000217873
3.94136e-05
0.000381676
0.000800315
0.00128489
0.00182348
0.00240295
0.0030092
0.0036274
0.0042422
0.004838
0.00539919
0.0059105
0.00635741
0.00672661
0.00700668
0.0071889
0.00725822
-0.000785068
-0.000718111
-0.00053732
-0.000257347
0.000114849
0.000569779
0.00109604
0.00168075
0.00230982
0.00296819
0.00364009
0.00430915
0.00495867
0.00557177
0.00613176
0.00662252
0.00702902
0.00733814
0.00753967
0.00761659
-0.00123162
-0.00115748
-0.000957099
-0.000647061
-0.000235348
0.000267307
0.000848204
0.00149317
0.00218689
0.00291316
0.00365505
0.00439497
0.00511488
0.00579633
0.00642079
0.00696999
0.00742657
0.00777496
0.00800278
0.00809015
-0.00179706
-0.00171364
-0.00148805
-0.00113954
-0.000677504
-0.000114398
0.000535351
0.00125595
0.00203059
0.00284172
0.00367111
0.00449988
0.00530841
0.00607648
0.00678329
0.00740784
0.0079296
0.00832959
0.00859228
0.0086937
-0.00249673
-0.00240149
-0.00214402
-0.00174713
-0.00122231
-0.000584314
0.00015015
0.000963259
0.00183648
0.00275077
0.00368658
0.00462371
0.00554098
0.00641618
0.0072259
0.00794577
0.00855105
0.00901806
0.00932656
0.0094468
-0.00335018
-0.00323989
-0.00294227
-0.00248506
-0.00188266
-0.00115309
-0.000315989
0.000608316
0.00159933
0.00263648
0.00369902
0.00476565
0.00581379
0.00681925
0.00775579
0.00859496
0.00930663
0.00986049
0.0102294
0.0103751
-0.00438226
-0.00425255
-0.00390418
-0.00337166
-0.00267375
-0.00183292
-0.000872715
0.000183538
0.00131318
0.00249425
0.00370509
0.00492381
0.00612694
0.00728869
0.00837995
0.00936765
0.0102148
0.0108819
0.0113315
0.0115125
-0.0056248
-0.00546932
-0.00505606
-0.00442887
-0.00361304
-0.00263733
-0.00153035
-0.000319049
0.000971658
0.00231874
0.0037003
0.00509469
0.00647859
0.00782556
0.00910405
0.0102761
0.0112964
0.0121129
0.0126721
0.0129042
-0.00711934
-0.00692814
-0.00643035
-0.00568251
-0.00472004
-0.00358051
-0.0022991
-0.000907059
0.000568502
0.00210416
0.00367884
0.00527255
0.00686377
0.00842712
0.00993032
0.0113309
0.0125737
0.0135903
0.0143025
0.0146125
-0.00892167
-0.00867791
-0.00806732
-0.00716263
-0.00601568
-0.00467612
-0.00318761
-0.00158643
9.85779e-05
0.00184473
0.00363358
0.00544875
0.00727307
0.009085
0.0108543
0.0125369
0.0140677
0.0153576
0.0162894
0.0167256
-0.0111097
-0.0107837
-0.0100177
-0.00890352
-0.00752086
-0.00593512
-0.00420105
-0.00235981
-0.00044085
0.00153567
0.00355629
0.00561102
0.0076905
0.00978143
0.0118608
0.0138876
0.0157916
0.0174631
0.0187188
0.0193751
-0.0137883
-0.0133314
-0.0123455
-0.0109426
-0.00925326
-0.00736274
-0.00533792
-0.00322369
-0.00104793
0.0011746
0.00343829
0.0057432
0.00809207
0.0104857
0.0129159
0.015355
0.0177381
0.0199524
0.0216885
0.0227827
-0.0172353
-0.016456
-0.0151371
-0.0133168
-0.0112229
-0.00895281
-0.00658507
-0.00416454
-0.00171303
0.000763859
0.00327219
0.00582567
0.00844416
0.0111494
0.0139589
0.0168736
0.019853
0.0228343
0.0252812
0.027328
-0.0210912
-0.0201404
-0.0184427
-0.0160453
-0.0134198
-0.0106787
-0.00791079
-0.00515322
-0.00241523
0.000312878
0.00305336
0.00583705
0.00870362
0.0117023
0.0148875
0.0183064
0.0219703
0.0260341
0.0293931
0.0334555
-0.0290235
-0.0251663
-0.0226544
-0.0192025
-0.0158097
-0.0124745
-0.00924823
-0.00613466
-0.00311442
-0.000154271
0.00278804
0.00576173
0.00882613
0.012068
0.0156021
0.0195952
0.0241692
0.0300388
0.0351382
0.0433936
-0.0340097
-0.030939
-0.0272678
-0.0227702
-0.0184177
-0.0143287
-0.010569
-0.0070792
-0.00378934
-0.000630202
0.00246603
0.00557019
0.00874776
0.0120865
0.0156844
0.0197431
0.0239646
0.0313658
0.034985
0.0516405
-0.0622449
-0.0348368
-0.0309419
-0.0248279
-0.0195792
-0.0151529
-0.011172
-0.00751755
-0.00410957
-0.000865321
0.00229249
0.00543976
0.00866726
0.0121034
0.0159324
0.0207761
0.0267325
0.0382714
0.0505929
0.0927874
6.97456e-07
5.54686e-05
0.000202255
0.000430011
0.000733232
0.00110437
0.00153415
0.00201192
0.00252581
0.00306302
0.00361006
0.00415303
0.00467788
0.00517075
0.00561831
0.00600809
0.00632896
0.00657155
0.00672879
0.00678856
-5.33676e-05
2.02883e-06
0.00015115
0.000382377
0.000690207
0.001067
0.00150336
0.00198848
0.00251036
0.00305602
0.00361181
0.00416366
0.0046973
0.00519864
0.0056541
0.00605096
0.0063778
0.00662502
0.00678543
0.00684622
-0.000203008
-0.000145528
9.97337e-06
0.000251084
0.000572032
0.000964807
0.00141962
0.00192524
0.00246921
0.00303814
0.00361792
0.00419395
0.00475145
0.00527575
0.00575261
0.00616861
0.00651161
0.00677131
0.00693997
0.00700373
-0.000444281
-0.00038311
-0.000217242
3.9887e-05
0.00038204
0.000800603
0.00128513
0.00182368
0.00240313
0.00300938
0.00362759
0.0042424
0.00483822
0.00539942
0.00591074
0.00635764
0.00672679
0.00700676
0.00718883
0.00725775
-0.000783547
-0.000717058
-0.000536484
-0.000256696
0.000115366
0.000570196
0.00109639
0.00168104
0.00231007
0.00296841
0.00364031
0.00430937
0.00495889
0.00557201
0.006132
0.00662273
0.00702918
0.00733818
0.00753955
0.00761602
-0.00122976
-0.00115615
-0.000956022
-0.000646203
-0.000234656
0.000267872
0.000848669
0.00149356
0.00218722
0.00291345
0.00365531
0.00439522
0.00511512
0.00579658
0.00642104
0.00697022
0.00742674
0.00777499
0.00800264
0.00808951
-0.00179476
-0.00171196
-0.00148667
-0.00113842
-0.000676595
-0.000113656
0.000535959
0.00125644
0.002031
0.00284206
0.00367142
0.00450016
0.00530869
0.00607676
0.00678356
0.0074081
0.0079298
0.00832967
0.00859216
0.00869301
-0.00249386
-0.00239934
-0.00214223
-0.00174568
-0.00122112
-0.000583354
0.000150925
0.000963883
0.00183698
0.00275118
0.00368692
0.00462401
0.00554127
0.00641647
0.00722621
0.00794607
0.00855131
0.0090182
0.00932651
0.00944608
-0.00334652
-0.00323709
-0.00293994
-0.00248316
-0.00188112
-0.00115186
-0.000315019
0.000609073
0.00159991
0.00263694
0.00369939
0.00476596
0.00581407
0.00681954
0.00775609
0.0085953
0.00930697
0.00986074
0.0102295
0.0103744
-0.0043775
-0.00424885
-0.0039011
-0.00336918
-0.00267177
-0.00183138
-0.000871532
0.000184425
0.00131383
0.00249472
0.00370543
0.00492406
0.00612716
0.00728892
0.00838025
0.00936803
0.0102152
0.0108823
0.0113317
0.0115119
-0.00561847
-0.00546435
-0.00505194
-0.0044256
-0.00361051
-0.00263543
-0.00152895
-0.000318072
0.000972308
0.00231914
0.00370051
0.00509478
0.00647862
0.00782558
0.00910423
0.0102765
0.0112969
0.0121135
0.0126726
0.0129039
-0.00711073
-0.00692131
-0.00642479
-0.00567822
-0.00471685
-0.00357823
-0.00229755
-0.00090609
0.000569029
0.00210435
0.0036788
0.00527236
0.0068635
0.00842687
0.0099302
0.011331
0.0125742
0.0135912
0.0143035
0.0146128
-0.00890966
-0.00866835
-0.00805981
-0.00715707
-0.00601179
-0.00467356
-0.00318608
-0.00158567
9.87605e-05
0.0018445
0.00363306
0.00544803
0.00727221
0.00908413
0.0108537
0.0125366
0.0140679
0.0153588
0.0162912
0.016727
-0.0110925
-0.0107702
-0.0100075
-0.00889647
-0.00751636
-0.00593256
-0.0041999
-0.00235965
-0.000441371
0.0015347
0.00355495
0.00560942
0.00768869
0.00977952
0.011859
0.0138862
0.0157912
0.0174645
0.0187215
0.0193787
-0.0137627
-0.0133119
-0.012332
-0.0109341
-0.00924866
-0.00736085
-0.00533782
-0.00322477
-0.00104966
0.00117239
0.00343566
0.00574014
0.00808858
0.0104818
0.0129119
0.0153514
0.0177358
0.0199534
0.0216923
0.0227906
-0.0171976
-0.016429
-0.0151202
-0.0133076
-0.0112195
-0.00895291
-0.00658716
-0.00416769
-0.0017168
0.000759624
0.00326743
0.0058202
0.00843778
0.0111421
0.0139507
0.0168653
0.0198461
0.0228329
0.0252845
0.027344
-0.0210248
-0.0201001
-0.0184217
-0.0160373
-0.01342
-0.0106831
-0.00791709
-0.0051602
-0.00242247
0.000305362
0.00304529
0.00582782
0.00869266
0.011689
0.0148715
0.018288
0.0219513
0.0260252
0.029388
0.0334844
-0.0289364
-0.0251148
-0.0226357
-0.0192001
-0.0158177
-0.0124867
-0.00926149
-0.00614758
-0.00312679
-0.000166509
0.00277513
0.00574726
0.00880868
0.0120464
0.0155757
0.0195657
0.0241378
0.0300278
0.0351384
0.0434482
-0.0338679
-0.0308913
-0.0272602
-0.0227892
-0.0184452
-0.0143563
-0.010594
-0.00710109
-0.00380894
-0.000648818
0.00244678
0.00554841
0.00872082
0.0120509
0.0156358
0.0196795
0.0238675
0.0312974
0.0348723
0.0516885
-0.0620394
-0.0347202
-0.0309179
-0.0248401
-0.0196052
-0.0151824
-0.0111998
-0.00754225
-0.00413187
-0.000886705
0.00227001
0.00541362
0.00863427
0.0120602
0.0158741
0.0207079
0.0266495
0.0382426
0.0506288
0.0930519
1.11569e-06
5.56177e-05
0.00020226
0.000429931
0.000733114
0.00110425
0.00153406
0.00201188
0.00252583
0.00306312
0.00361024
0.0041533
0.00467824
0.0051712
0.00561881
0.00600864
0.00632951
0.00657204
0.00672918
0.00678869
-5.26668e-05
2.4655e-06
0.000151437
0.000382551
0.000690312
0.00106706
0.00150342
0.00198855
0.00251045
0.00305615
0.00361199
0.00416388
0.00469757
0.00519896
0.00565446
0.00605133
0.00637815
0.00662529
0.00678557
0.00684609
-0.000202078
-0.000144881
1.04593e-05
0.000251443
0.000572302
0.000965017
0.0014198
0.00192539
0.00246937
0.00303831
0.00361811
0.00419416
0.00475169
0.00527602
0.00575289
0.00616889
0.00651185
0.00677147
0.00693998
0.00700345
-0.00044311
-0.000382246
-0.000216559
4.04226e-05
0.000382464
0.000800944
0.00128541
0.00182392
0.00240334
0.00300958
0.00362779
0.00424261
0.00483844
0.00539966
0.00591098
0.00635786
0.00672697
0.00700684
0.00718875
0.00725736
-0.000782102
-0.000715954
-0.000535586
-0.000255971
0.000115952
0.000570673
0.00109678
0.00168137
0.00231034
0.00296866
0.00364053
0.00430959
0.00495911
0.00557223
0.00613222
0.00662294
0.00702933
0.00733822
0.00753942
0.00761555
-0.00122798
-0.00115476
-0.000954866
-0.000645257
-0.000233883
0.000268502
0.000849182
0.00149398
0.00218757
0.00291374
0.00365556
0.00439546
0.00511535
0.00579681
0.00642126
0.00697043
0.00742689
0.00777503
0.00800249
0.00808897
-0.00179255
-0.00171019
-0.00148519
-0.0011372
-0.000675595
-0.000112843
0.000536613
0.00125697
0.00203142
0.00284241
0.00367171
0.00450041
0.00530893
0.006077
0.00678381
0.00740834
0.00792998
0.00832973
0.00859201
0.00869243
-0.00249107
-0.00239707
-0.00214032
-0.00174411
-0.00121984
-0.000582321
0.000151744
0.000964523
0.00183748
0.00275156
0.00368723
0.00462428
0.00554152
0.00641672
0.00722647
0.00794634
0.00855155
0.00901831
0.00932639
0.00944548
-0.00334297
-0.00323416
-0.00293747
-0.00248112
-0.00187948
-0.00115056
-0.000314015
0.000609833
0.00160048
0.00263735
0.00369969
0.00476621
0.00581429
0.00681977
0.00775638
0.00859562
0.00930727
0.00986093
0.0102294
0.0103739
-0.00437288
-0.00424501
-0.00389786
-0.00336654
-0.00266968
-0.00182977
-0.000870331
0.00018529
0.00131443
0.00249511
0.00370568
0.00492423
0.00612728
0.00728906
0.00838045
0.00936832
0.0102156
0.0108826
0.0113318
0.0115114
-0.00561235
-0.00545922
-0.00504767
-0.00442219
-0.00360788
-0.00263347
-0.00152757
-0.000317145
0.000972875
0.00231944
0.00370061
0.00509475
0.00647853
0.00782553
0.00910426
0.0102767
0.0112973
0.012114
0.012673
0.0129036
-0.00710247
-0.00691437
-0.00641911
-0.00567381
-0.00471358
-0.00357593
-0.00229604
-0.000905203
0.000569441
0.0021044
0.00367857
0.00527194
0.00686299
0.00842637
0.00992985
0.011331
0.0125745
0.0135919
0.0143043
0.014613
-0.00889828
-0.00865882
-0.00805223
-0.00715141
-0.00600783
-0.004671
-0.00318461
-0.00158503
9.87963e-05
0.00184405
0.00363224
0.00544694
0.00727094
0.00908284
0.0108526
0.0125359
0.014068
0.0153597
0.0162925
0.0167283
-0.0110765
-0.0107569
-0.00999742
-0.00888939
-0.00751183
-0.00593001
-0.0041988
-0.00235959
-0.000442085
0.00153338
0.00355315
0.00560722
0.00768619
0.00977686
0.0118564
0.0138842
0.0157903
0.0174652
0.0187237
0.0193818
-0.0137395
-0.0132933
-0.0123188
-0.0109257
-0.00924399
-0.0073589
-0.00533773
-0.00322591
-0.00105171
0.00116965
0.00343232
0.00573622
0.0080841
0.0104769
0.0129068
0.0153468
0.0177327
0.0199534
0.0216951
0.0227971
-0.0171636
-0.0164032
-0.0151036
-0.0132984
-0.0112158
-0.00895274
-0.00658918
-0.00417104
-0.00172101
0.000754724
0.00326183
0.00581374
0.00843031
0.0111335
0.0139413
0.0168559
0.0198382
0.0228302
0.0252866
0.0273572
-0.0209674
-0.0200627
-0.0184016
-0.0160291
-0.0134195
-0.0106868
-0.00792292
-0.00516705
-0.00242989
0.000297386
0.0030365
0.00581782
0.00868091
0.011675
0.0148552
0.0182699
0.0219331
0.0260152
0.029382
0.0335073
-0.0288666
-0.0250693
-0.0226178
-0.0191975
-0.0158243
-0.0124973
-0.00927328
-0.00615944
-0.00313852
-0.000178442
0.00276237
0.00573283
0.00879142
0.0120253
0.0155506
0.0195377
0.0241091
0.0300162
0.0351364
0.0434965
-0.0337525
-0.030837
-0.0272462
-0.0228001
-0.0184659
-0.0143786
-0.0106149
-0.00712007
-0.00382641
-0.000665785
0.00242901
0.00552818
0.00869605
0.0120189
0.0155928
0.0196236
0.0237869
0.0312409
0.0347893
0.0517365
-0.0618786
-0.0346123
-0.0308836
-0.0248454
-0.0196263
-0.0152074
-0.011224
-0.00756421
-0.00415197
-0.000906133
0.00224961
0.00539021
0.0086054
0.0120232
0.0158259
0.0206517
0.0265829
0.0382205
0.0506557
0.0932495
1.55262e-06
5.59596e-05
0.000202528
0.00043013
0.000733261
0.00110436
0.00153416
0.00201198
0.00252594
0.00306325
0.00361041
0.00415351
0.00467849
0.00517148
0.00561912
0.00600895
0.00632981
0.0065723
0.00672937
0.00678879
-5.21017e-05
2.92335e-06
0.000151807
0.000382841
0.000690541
0.00106725
0.00150357
0.00198869
0.00251059
0.0030563
0.00361216
0.00416407
0.00469779
0.00519921
0.00565471
0.00605158
0.00637837
0.00662546
0.00678568
0.00684611
-0.000201359
-0.000144279
1.09598e-05
0.000251849
0.000572631
0.000965285
0.00142002
0.00192559
0.00246954
0.00303848
0.00361828
0.00419434
0.00475189
0.00527623
0.0057531
0.00616909
0.00651202
0.00677158
0.00694002
0.00700339
-0.000442199
-0.000381466
-0.000215897
4.09726e-05
0.000382916
0.000801315
0.00128571
0.00182418
0.00240357
0.00300978
0.00362798
0.00424279
0.00483862
0.00539985
0.00591117
0.00635803
0.00672709
0.0070069
0.00718872
0.00725723
-0.000780956
-0.000714956
-0.000534727
-0.000255249
0.00011655
0.000571164
0.00109718
0.0016817
0.00231062
0.00296889
0.00364074
0.00430978
0.00495929
0.0055724
0.00613238
0.00662307
0.00702942
0.00733824
0.00753935
0.00761536
-0.00122654
-0.00115349
-0.000953765
-0.000644326
-0.00023311
0.000269136
0.000849694
0.00149439
0.0021879
0.00291401
0.00365579
0.00439565
0.00511553
0.00579697
0.00642141
0.00697055
0.00742696
0.00777504
0.0080024
0.00808875
-0.00179073
-0.00170857
-0.00148378
-0.001136
-0.000674607
-0.000112042
0.000537252
0.00125747
0.00203181
0.00284271
0.00367194
0.0045006
0.00530909
0.00607714
0.00678393
0.00740844
0.00793005
0.00832972
0.00859191
0.00869218
-0.00248875
-0.002395
-0.00213852
-0.00174258
-0.00121859
-0.00058132
0.000152524
0.000965115
0.00183792
0.00275188
0.00368745
0.00462443
0.00554163
0.00641682
0.00722655
0.00794642
0.00855161
0.00901831
0.00932631
0.00944524
-0.00333997
-0.00323148
-0.00293513
-0.00247917
-0.0018779
-0.00114932
-0.000313082
0.000610509
0.00160094
0.00263765
0.00369986
0.00476628
0.00581431
0.00681978
0.00775639
0.00859564
0.00930731
0.00986095
0.0102294
0.0103736
-0.00436897
-0.0042415
-0.00389484
-0.00336404
-0.0026677
-0.00182827
-0.000869244
0.000186025
0.00131487
0.00249533
0.00370572
0.00492415
0.00612715
0.00728892
0.00838034
0.00936826
0.0102156
0.0108826
0.0113318
0.0115113
-0.00560718
-0.0054546
-0.00504372
-0.004419
-0.00360542
-0.00263169
-0.00152635
-0.000316408
0.000973226
0.00231948
0.00370043
0.00509442
0.00647812
0.0078251
0.00910389
0.0102764
0.0112972
0.012114
0.0126731
0.0129037
-0.00709555
-0.00690822
-0.00641396
-0.00566976
-0.00471059
-0.00357388
-0.00229478
-0.000904576
0.000569558
0.00210412
0.003678
0.00527116
0.00686209
0.00842546
0.00992903
0.0113304
0.0125742
0.0135919
0.0143046
0.0146133
-0.00888891
-0.00865057
-0.0080455
-0.00714633
-0.00600428
-0.00466877
-0.00318344
-0.0015847
9.84693e-05
0.00184323
0.00363104
0.00544545
0.00726927
0.00908111
0.0108509
0.0125346
0.0140672
0.0153595
0.016293
0.0167291
-0.0110637
-0.0107457
-0.0099887
-0.00888314
-0.00750781
-0.00592781
-0.00419801
-0.00235987
-0.000443155
0.0015317
0.00355098
0.00560465
0.00768331
0.00977382
0.0118535
0.0138816
0.0157886
0.0174647
0.0187243
0.0193834
-0.0137218
-0.0132783
-0.0123077
-0.0109183
-0.00923977
-0.00735714
-0.00533777
-0.00322723
-0.00105396
0.00116669
0.00342874
0.00573208
0.00807945
0.0104718
0.0129017
0.0153421
0.0177292
0.019952
0.0216959
0.0228004
-0.0171392
-0.0163834
-0.0150898
-0.0132901
-0.0112119
-0.00895211
-0.00659073
-0.00417401
-0.00172498
0.000749958
0.00325631
0.00580743
0.00842315
0.0111256
0.0139329
0.0168476
0.0198314
0.0228269
0.025287
0.0273633
-0.020932
-0.0200361
-0.0183847
-0.0160204
-0.0134168
-0.0106882
-0.00792684
-0.00517244
-0.00243622
0.000290264
0.00302852
0.00580873
0.00867046
0.0116631
0.014842
0.0182562
0.0219205
0.0260082
0.0293795
0.0335172
-0.0288225
-0.0250365
-0.0225994
-0.0191895
-0.0158238
-0.0125018
-0.00928039
-0.00616787
-0.0031477
-0.000188317
0.00275149
0.00572056
0.00877712
0.0120087
0.0155317
0.0195182
0.0240915
0.0300083
0.035137
0.0435168
-0.0336923
-0.0307968
-0.0272254
-0.0227938
-0.0184692
-0.0143872
-0.0106259
-0.00713196
-0.00383869
-0.000678585
0.00241513
0.00551236
0.0086773
0.0119961
0.0155651
0.0195918
0.0237497
0.0312177
0.0347672
0.0517573
-0.0618
-0.0345556
-0.0308559
-0.0248373
-0.0196298
-0.0152173
-0.0112366
-0.00757767
-0.00416573
-0.000920411
0.00223411
0.00537246
0.00858427
0.0119977
0.0157956
0.0206194
0.0265514
0.038209
0.0506634
0.0933109
1.96359e-06
5.63149e-05
0.000202824
0.000430369
0.000733453
0.00110452
0.0015343
0.00201211
0.00252607
0.00306339
0.00361057
0.00415368
0.00467868
0.00517169
0.00561934
0.00600917
0.00633001
0.00657247
0.0067295
0.00678887
-5.16143e-05
3.35436e-06
0.000152175
0.000383146
0.000690791
0.00106746
0.00150375
0.00198885
0.00251074
0.00305644
0.00361231
0.00416424
0.00469797
0.00519939
0.0056549
0.00605176
0.00637853
0.00662559
0.00678576
0.00684614
-0.000200756
-0.000143739
1.14306e-05
0.000252248
0.000572962
0.000965561
0.00142025
0.00192579
0.00246972
0.00303864
0.00361844
0.0041945
0.00475205
0.00527639
0.00575327
0.00616924
0.00651214
0.00677166
0.00694005
0.00700338
-0.000441442
-0.000380779
-0.000215291
4.14909e-05
0.000383352
0.000801677
0.00128601
0.00182443
0.00240378
0.00300996
0.00362814
0.00424295
0.00483878
0.00539999
0.0059113
0.00635815
0.00672719
0.00700695
0.00718872
0.00725717
-0.000780002
-0.000714083
-0.000533952
-0.000254582
0.000117113
0.000571631
0.00109756
0.00168201
0.00231087
0.0029691
0.00364092
0.00430994
0.00495944
0.00557253
0.0061325
0.00662317
0.00702949
0.00733826
0.00753932
0.00761527
-0.00122533
-0.00115238
-0.000952775
-0.000643472
-0.000232392
0.000269726
0.00085017
0.00149477
0.00218819
0.00291424
0.00365597
0.0043958
0.00511565
0.00579708
0.0064215
0.00697062
0.00742701
0.00777504
0.00800234
0.00808863
-0.0017892
-0.00170715
-0.00148252
-0.00113492
-0.0006737
-0.000111305
0.000537835
0.00125792
0.00203215
0.00284295
0.00367212
0.00450073
0.00530919
0.00607722
0.006784
0.00740849
0.00793007
0.00832971
0.00859184
0.00869204
-0.00248679
-0.00239318
-0.0021369
-0.0017412
-0.00121745
-0.000580409
0.000153225
0.000965634
0.00183828
0.00275212
0.0036876
0.00462452
0.00554168
0.00641684
0.00722657
0.00794643
0.0085516
0.00901828
0.00932623
0.00944509
-0.00333744
-0.00322914
-0.00293306
-0.00247742
-0.00187648
-0.00114822
-0.000312256
0.000611088
0.00160131
0.00263785
0.00369994
0.00476628
0.00581426
0.0068197
0.00775631
0.00859558
0.00930726
0.0098609
0.0102293
0.0103735
-0.00436568
-0.00423847
-0.00389217
-0.00336182
-0.00266594
-0.00182694
-0.000868301
0.000186636
0.00131521
0.00249545
0.00370567
0.00492398
0.00612691
0.00728866
0.00838009
0.00936807
0.0102154
0.0108826
0.0113318
0.0115112
-0.00560287
-0.00545064
-0.00504029
-0.0044162
-0.00360326
-0.00263012
-0.00152532
-0.000315821
0.000973448
0.00231942
0.00370014
0.00509397
0.00647759
0.00782455
0.00910338
0.010276
0.0112969
0.0121139
0.0126731
0.0129036
-0.00708986
-0.00690303
-0.00640954
-0.00566624
-0.00470798
-0.0035721
-0.00229372
-0.000904108
0.000569551
0.00210374
0.00367732
0.00527028
0.00686109
0.00842441
0.00992806
0.0113296
0.0125737
0.0135916
0.0143045
0.0146134
-0.00888136
-0.00864374
-0.00803983
-0.00714197
-0.00600122
-0.00466685
-0.00318248
-0.00158451
9.80583e-05
0.00184235
0.00362978
0.00544391
0.00726754
0.00907931
0.0108492
0.0125331
0.0140661
0.015359
0.016293
0.0167294
-0.0110537
-0.0107368
-0.00998148
-0.00887784
-0.00750433
-0.00592589
-0.00419735
-0.00236018
-0.000444214
0.00153005
0.00354885
0.00560214
0.00768052
0.00977089
0.0118506
0.0138791
0.0157867
0.0174638
0.0187243
0.0193841
-0.0137084
-0.0132666
-0.0122986
-0.010912
-0.00923605
-0.00735549
-0.00533771
-0.00322835
-0.00105597
0.00116396
0.00342542
0.00572824
0.00807517
0.0104673
0.0128971
0.0153379
0.0177259
0.0199503
0.0216957
0.0228018
-0.0171214
-0.0163683
-0.0150787
-0.0132829
-0.0112083
-0.00895113
-0.00659169
-0.00417635
-0.00172833
0.000745808
0.00325144
0.00580186
0.00841691
0.0111188
0.0139258
0.0168409
0.0198258
0.0228238
0.0252864
0.0273662
-0.0209077
-0.0200165
-0.0183713
-0.0160127
-0.0134138
-0.0106884
-0.00792932
-0.00517642
-0.00244125
0.000284366
0.00302174
0.00580107
0.0086618
0.0116535
0.0148317
0.0182459
0.0219115
0.0260028
0.0293773
0.0335219
-0.028793
-0.0250128
-0.0225844
-0.0191818
-0.015822
-0.0125038
-0.0092848
-0.00617377
-0.00315462
-0.000196106
0.00274277
0.00571067
0.0087658
0.0119959
0.0155179
0.0195044
0.0240793
0.0300021
0.0351361
0.043527
-0.0336537
-0.0307677
-0.027208
-0.0227865
-0.018469
-0.0143913
-0.0106324
-0.00713986
-0.00384748
-0.000688187
0.0024045
0.00550024
0.00866325
0.0119797
0.0155462
0.0195711
0.0237274
0.0312034
0.0347552
0.0517677
-0.0617522
-0.0345182
-0.0308344
-0.0248286
-0.0196297
-0.0152222
-0.0112441
-0.00758658
-0.00417548
-0.000930978
0.00222242
0.00535914
0.00856882
0.0119798
0.0157753
0.0205985
0.0265319
0.0382003
0.0506635
0.0933392
2.3264e-06
5.66489e-05
0.00020312
0.000430624
0.00073367
0.0011047
0.00153446
0.00201225
0.00252621
0.00306352
0.0036107
0.00415382
0.00467882
0.00517184
0.00561949
0.00600931
0.00633014
0.00657257
0.00672958
0.00678893
-5.12037e-05
3.73458e-06
0.000152514
0.00038344
0.000691041
0.00106767
0.00150393
0.00198901
0.00251088
0.00305658
0.00361245
0.00416437
0.0046981
0.00519953
0.00565503
0.00605189
0.00637864
0.00662568
0.00678582
0.00684618
-0.000200262
-0.000143278
1.18443e-05
0.000252608
0.00057327
0.000965821
0.00142047
0.00192597
0.00246988
0.00303879
0.00361858
0.00419463
0.00475218
0.00527652
0.00575339
0.00616935
0.00651223
0.00677173
0.00694009
0.00700339
-0.000440827
-0.000380203
-0.000214771
4.19452e-05
0.00038374
0.000802004
0.00128629
0.00182465
0.00240397
0.00301013
0.00362829
0.00424308
0.0048389
0.0054001
0.0059114
0.00635823
0.00672725
0.00700699
0.00718873
0.00725715
-0.000779228
-0.000713356
-0.000533294
-0.000254005
0.000117604
0.000572041
0.0010979
0.00168228
0.00231109
0.00296928
0.00364106
0.00431006
0.00495954
0.00557263
0.00613258
0.00662324
0.00702953
0.00733828
0.0075393
0.00761522
-0.00122435
-0.00115146
-0.000951939
-0.000642742
-0.000231773
0.000270237
0.000850583
0.00149509
0.00218845
0.00291443
0.00365612
0.00439591
0.00511574
0.00579715
0.00642156
0.00697066
0.00742703
0.00777503
0.0080023
0.00808856
-0.00178795
-0.00170598
-0.00148146
-0.00113399
-0.000672924
-0.000110673
0.000538333
0.0012583
0.00203243
0.00284315
0.00367225
0.00450081
0.00530924
0.00607725
0.00678401
0.00740849
0.00793006
0.00832968
0.00859178
0.00869195
-0.00248519
-0.00239168
-0.00213555
-0.00174003
-0.00121648
-0.000579636
0.000153817
0.000966066
0.00183858
0.00275231
0.0036877
0.00462455
0.00554167
0.00641681
0.00722653
0.00794638
0.00855155
0.00901822
0.00932615
0.00944499
-0.00333539
-0.00322721
-0.00293134
-0.00247595
-0.00187528
-0.00114728
-0.000311569
0.000611559
0.0016016
0.00263799
0.00369997
0.00476622
0.00581415
0.00681956
0.00775617
0.00859545
0.00930715
0.00986081
0.0102292
0.0103734
-0.00436302
-0.00423598
-0.00388997
-0.00335997
-0.00266447
-0.00182583
-0.000867525
0.000187121
0.00131545
0.00249549
0.00370556
0.00492377
0.00612663
0.00728835
0.0083798
0.00936781
0.0102152
0.0108824
0.0113316
0.0115111
-0.00559942
-0.00544743
-0.00503748
-0.00441388
-0.00360147
-0.00262883
-0.00152448
-0.000315368
0.000973579
0.00231929
0.00369981
0.0050935
0.00647703
0.00782396
0.00910282
0.0102755
0.0112965
0.0121136
0.0126729
0.0129035
-0.00708537
-0.00689888
-0.00640597
-0.00566337
-0.00470584
-0.00357064
-0.00229286
-0.000903765
0.000569474
0.00210333
0.00367666
0.00526943
0.00686012
0.00842341
0.00992709
0.0113287
0.012573