/*--------------------------------*- C++ -*----------------------------------*\
  =========                 |
  \\      /  F ield         | OpenFOAM: The Open Source CFD Toolbox
   \\    /   O peration     | Website:  https://openfoam.org
    \\  /    A nd           | Version:  10
     \\/     M anipulation  |
\*---------------------------------------------------------------------------*/
FoamFile
{
    format      ascii;
    class       volVectorField;
    location    "0.175";
    object      U;
}
// * * * * * * * * * * * * * * * * * * * * * * * * * * * * * * * * * * * * * //

dimensions      [0 1 -1 0 0 0 0];

internalField   nonuniform List<vector> 
475
(
(0.891929 0.00784311 0)
(1.01089 -0.00612818 0)
(1.03174 0.0134351 0)
(1.09544 -0.139103 0)
(1.04984 0.0635192 0)
(0.908894 0.00385522 0)
(1.02532 -0.0113311 0)
(1.07959 -0.0450071 0)
(1.0101 -0.0659812 0)
(1.0318 -0.1824 0)
(0.907561 -0.00634006 0)
(1.02469 -0.0277324 0)
(1.04921 -0.0388728 0)
(1.00623 -0.0777112 0)
(0.981864 -0.0760638 0)
(0.908266 -0.0149329 0)
(1.02268 -0.0293529 0)
(1.03819 -0.0366616 0)
(0.983069 -0.0466784 0)
(0.944039 -0.064141 0)
(0.894809 -0.0110407 0)
(0.987985 -0.0166231 0)
(0.979935 -0.0165159 0)
(0.914638 -0.0183625 0)
(0.872754 -0.0209776 0)
(1.29538 -0.331305 0)
(1.01569 -0.438778 0)
(0.75442 -0.385831 0)
(0.644449 -0.274998 0)
(0.582722 -0.190364 0)
(0.548542 -0.134518 0)
(0.531482 -0.0966795 0)
(0.52247 -0.0700784 0)
(0.517221 -0.0510083 0)
(0.513947 -0.0372091 0)
(0.511801 -0.0271749 0)
(0.510346 -0.0198592 0)
(0.509338 -0.0145178 0)
(0.508629 -0.0106148 0)
(0.508123 -0.00776146 0)
(0.507759 -0.00567497 0)
(0.507497 -0.00414922 0)
(0.507308 -0.00303368 0)
(0.507172 -0.00221816 0)
(0.507074 -0.00162192 0)
(0.507001 -0.00118587 0)
(0.506948 -0.000866905 0)
(0.506908 -0.000633616 0)
(0.506881 -0.000463088 0)
(0.506861 -0.000338522 0)
(0.506846 -0.000247559 0)
(0.506836 -0.000181094 0)
(0.506827 -0.000132464 0)
(0.506821 -9.68478e-05 0)
(0.506816 -7.07744e-05 0)
(0.506813 -5.17136e-05 0)
(0.506811 -3.77933e-05 0)
(0.50681 -2.76334e-05 0)
(0.506809 -2.02243e-05 0)
(0.506808 -1.48002e-05 0)
(0.506807 -1.08187e-05 0)
(0.506806 -7.91273e-06 0)
(0.506806 -5.82112e-06 0)
(0.506806 -4.32714e-06 0)
(0.506805 -3.26972e-06 0)
(0.506808 -2.53322e-06 0)
(0.5068 -2.01796e-06 0)
(0.506818 -1.73573e-06 0)
(0.506802 -1.70144e-06 0)
(0.506806 -1.45289e-06 0)
(0.958948 -0.346327 0)
(0.826763 -0.27244 0)
(0.707851 -0.19542 0)
(0.642668 -0.162793 0)
(0.604768 -0.134776 0)
(0.57691 -0.105669 0)
(0.556659 -0.080188 0)
(0.542381 -0.0598937 0)
(0.53231 -0.0443637 0)
(0.52517 -0.0327092 0)
(0.520079 -0.024052 0)
(0.51643 -0.0176558 0)
(0.513802 -0.0129454 0)
(0.5119 -0.00948443 0)
(0.510517 -0.00694551 0)
(0.509511 -0.00508447 0)
(0.508779 -0.00372066 0)
(0.508248 -0.00272154 0)
(0.50786 -0.00199021 0)
(0.507576 -0.00145549 0)
(0.507368 -0.00106472 0)
(0.507215 -0.000778947 0)
(0.507104 -0.000569652 0)
(0.507024 -0.000416235 0)
(0.506966 -0.000303902 0)
(0.506924 -0.000221909 0)
(0.506892 -0.000162273 0)
(0.506868 -0.000118941 0)
(0.50685 -8.7325e-05 0)
(0.506838 -6.40602e-05 0)
(0.506829 -4.68089e-05 0)
(0.506823 -3.40066e-05 0)
(0.506819 -2.45806e-05 0)
(0.506816 -1.77436e-05 0)
(0.506813 -1.28897e-05 0)
(0.50681 -9.50043e-06 0)
(0.506808 -7.12497e-06 0)
(0.506807 -5.40841e-06 0)
(0.506807 -4.11818e-06 0)
(0.506806 -3.11659e-06 0)
(0.506809 -2.36072e-06 0)
(0.5068 -1.80803e-06 0)
(0.506818 -1.53139e-06 0)
(0.506801 -1.55722e-06 0)
(0.506806 -1.6017e-06 0)
(0.930103 -0.129459 0)
(0.83622 -0.170931 0)
(0.747242 -0.160204 0)
(0.684357 -0.13035 0)
(0.638509 -0.102518 0)
(0.603485 -0.0792567 0)
(0.577372 -0.0603628 0)
(0.558293 -0.0454612 0)
(0.544385 -0.0339566 0)
(0.53424 -0.0252107 0)
(0.526839 -0.0186358 0)
(0.52144 -0.0137325 0)
(0.517499 -0.010097 0)
(0.514619 -0.00741305 0)
(0.512514 -0.00543669 0)
(0.510976 -0.00398359 0)
(0.509852 -0.00291659 0)
(0.509031 -0.00213437 0)
(0.508431 -0.00156186 0)
(0.507992 -0.00114309 0)
(0.50767 -0.000836529 0)
(0.507435 -0.000611789 0)
(0.507264 -0.000446985 0)
(0.507139 -0.000326376 0)
(0.507048 -0.000238433 0)
(0.506981 -0.000174487 0)
(0.506931 -0.000127949 0)
(0.506895 -9.38901e-05 0)
(0.506869 -6.87719e-05 0)
(0.50685 -5.01612e-05 0)
(0.506836 -3.64236e-05 0)
(0.506826 -2.64063e-05 0)
(0.506819 -1.92009e-05 0)
(0.506813 -1.40576e-05 0)
(0.506809 -1.03908e-05 0)
(0.506806 -7.7251e-06 0)
(0.506803 -5.72627e-06 0)
(0.506802 -4.19609e-06 0)
(0.506801 -3.03869e-06 0)
(0.506799 -2.22711e-06 0)
(0.506802 -1.70352e-06 0)
(0.506793 -1.43654e-06 0)
(0.506811 -1.35891e-06 0)
(0.506793 -1.55578e-06 0)
(0.506798 -1.5457e-06 0)
(0.902373 -0.0895103 0)
(0.836784 -0.0976617 0)
(0.763388 -0.0875168 0)
(0.701867 -0.0729344 0)
(0.65444 -0.0592168 0)
(0.617594 -0.0469005 0)
(0.589212 -0.0363085 0)
(0.567723 -0.0276519 0)
(0.551626 -0.0208198 0)
(0.53965 -0.0155474 0)
(0.530784 -0.011541 0)
(0.524244 -0.00853028 0)
(0.519432 -0.00628588 0)
(0.515897 -0.0046222 0)
(0.513302 -0.00339362 0)
(0.5114 -0.00248862 0)
(0.510007 -0.00182331 0)
(0.508988 -0.00133508 0)
(0.508242 -0.000977278 0)
(0.507696 -0.000715208 0)
(0.507296 -0.000523229 0)
(0.507004 -0.000382579 0)
(0.50679 -0.000279607 0)
(0.506635 -0.000204349 0)
(0.506521 -0.000149443 0)
(0.506437 -0.000109396 0)
(0.506376 -8.01171e-05 0)
(0.506331 -5.86209e-05 0)
(0.506298 -4.27943e-05 0)
(0.506274 -3.11678e-05 0)
(0.506257 -2.2683e-05 0)
(0.506245 -1.65351e-05 0)
(0.506236 -1.21071e-05 0)
(0.506229 -8.9235e-06 0)
(0.506223 -6.60504e-06 0)
(0.506219 -4.89235e-06 0)
(0.506216 -3.61024e-06 0)
(0.506214 -2.65728e-06 0)
(0.506213 -1.95756e-06 0)
(0.506211 -1.48172e-06 0)
(0.506214 -1.11189e-06 0)
(0.506205 -1.06689e-06 0)
(0.506223 -8.96358e-07 0)
(0.506205 -1.4357e-06 0)
(0.50621 -1.82931e-06 0)
(0.832031 -0.0259646 0)
(0.77593 -0.0295132 0)
(0.714775 -0.027801 0)
(0.660675 -0.0235164 0)
(0.616989 -0.0191252 0)
(0.582395 -0.0151816 0)
(0.555352 -0.011796 0)
(0.534568 -0.00901824 0)
(0.51881 -0.00681377 0)
(0.506974 -0.00510284 0)
(0.498147 -0.00379621 0)
(0.491599 -0.00281041 0)
(0.486761 -0.00207345 0)
(0.483195 -0.0015261 0)
(0.480573 -0.0011213 0)
(0.478647 -0.000822739 0)
(0.477236 -0.000603001 0)
(0.476202 -0.000441601 0)
(0.475445 -0.000323256 0)
(0.474891 -0.000236559 0)
(0.474485 -0.000173046 0)
(0.474188 -0.00012651 0)
(0.473972 -9.24423e-05 0)
(0.473813 -6.75587e-05 0)
(0.473697 -4.94277e-05 0)
(0.473613 -3.62151e-05 0)
(0.47355 -2.65405e-05 0)
(0.473505 -1.94026e-05 0)
(0.473472 -1.41168e-05 0)
(0.473447 -1.02254e-05 0)
(0.47343 -7.39869e-06 0)
(0.473417 -5.38433e-06 0)
(0.473408 -3.9843e-06 0)
(0.473401 -3.01665e-06 0)
(0.473396 -2.28927e-06 0)
(0.473392 -1.72151e-06 0)
(0.473389 -1.28254e-06 0)
(0.473387 -9.45498e-07 0)
(0.473385 -6.76553e-07 0)
(0.473384 -4.76609e-07 0)
(0.473386 -3.03782e-07 0)
(0.473378 -3.77904e-07 0)
(0.473393 -2.75061e-07 0)
(0.473378 -7.70848e-07 0)
(0.473379 -1.19703e-06 0)
(0.0322315 -0.0319179 0)
(0.105581 -0.0394213 0)
(0.183683 -0.0361605 0)
(0.251535 -0.030459 0)
(0.306862 -0.0242729 0)
(0.350025 -0.0186505 0)
(0.382727 -0.0140065 0)
(0.407057 -0.0103753 0)
(0.424965 -0.00762362 0)
(0.438073 -0.00557573 0)
(0.44764 -0.00406837 0)
(0.454612 -0.00296638 0)
(0.459692 -0.00216283 0)
(0.463394 -0.00157663 0)
(0.466094 -0.00114899 0)
(0.468062 -0.000837705 0)
(0.469497 -0.00061155 0)
(0.470543 -0.000446931 0)
(0.471308 -0.000326494 0)
(0.471868 -0.000238118 0)
(0.472277 -0.000173502 0)
(0.472574 -0.000126633 0)
(0.472791 -9.27835e-05 0)
(0.472949 -6.81943e-05 0)
(0.473065 -5.00518e-05 0)
(0.473151 -3.64699e-05 0)
(0.473214 -2.63297e-05 0)
(0.47326 -1.89523e-05 0)
(0.473292 -1.37417e-05 0)
(0.473316 -1.01076e-05 0)
(0.473333 -7.56929e-06 0)
(0.473346 -5.73065e-06 0)
(0.473356 -4.28439e-06 0)
(0.473363 -3.14649e-06 0)
(0.473368 -2.28866e-06 0)
(0.473372 -1.66545e-06 0)
(0.473375 -1.21395e-06 0)
(0.473376 -8.9477e-07 0)
(0.473378 -6.74649e-07 0)
(0.473378 -4.86354e-07 0)
(0.473382 -3.78127e-07 0)
(0.473375 -1.18216e-07 0)
(0.473391 -1.10838e-07 0)
(0.473381 4.19737e-07 0)
(0.47338 7.63967e-07 0)
(0.0310815 -0.0979276 0)
(0.112463 -0.126809 0)
(0.205123 -0.11372 0)
(0.280076 -0.0945497 0)
(0.339029 -0.0745886 0)
(0.383676 -0.0568833 0)
(0.416763 -0.0425062 0)
(0.44102 -0.0313876 0)
(0.458716 -0.0230207 0)
(0.471602 -0.016822 0)
(0.480981 -0.0122714 0)
(0.487808 -0.00894702 0)
(0.492782 -0.00652266 0)
(0.49641 -0.00475507 0)
(0.499056 -0.0034671 0)
(0.500985 -0.00252958 0)
(0.502391 -0.00184704 0)
(0.503419 -0.00134911 0)
(0.504171 -0.000985012 0)
(0.504722 -0.000718797 0)
(0.505123 -0.000524689 0)
(0.505415 -0.00038353 0)
(0.505627 -0.000280769 0)
(0.505783 -0.000205571 0)
(0.505898 -0.000150221 0)
(0.505983 -0.000109435 0)
(0.506045 -7.95852e-05 0)
(0.50609 -5.80043e-05 0)
(0.506122 -4.25194e-05 0)
(0.506144 -3.13524e-05 0)
(0.506161 -2.31811e-05 0)
(0.506174 -1.70763e-05 0)
(0.506184 -1.24189e-05 0)
(0.506191 -8.90861e-06 0)
(0.506197 -6.36272e-06 0)
(0.5062 -4.59279e-06 0)
(0.506203 -3.38764e-06 0)
(0.506204 -2.55895e-06 0)
(0.506206 -1.96247e-06 0)
(0.506206 -1.47954e-06 0)
(0.50621 -1.14417e-06 0)
(0.506203 -6.72225e-07 0)
(0.506221 -5.37296e-07 0)
(0.506207 6.05069e-08 0)
(0.506211 4.25124e-07 0)
(0.0253183 -0.17175 0)
(0.110069 -0.232335 0)
(0.228357 -0.19989 0)
(0.307011 -0.161788 0)
(0.36469 -0.124774 0)
(0.405451 -0.0934663 0)
(0.434073 -0.0689721 0)
(0.454319 -0.0505181 0)
(0.468767 -0.0368693 0)
(0.479152 -0.0268683 0)
(0.486659 -0.0195736 0)
(0.492108 -0.014262 0)
(0.496075 -0.0103948 0)
(0.498968 -0.00757883 0)
(0.501078 -0.00552856 0)
(0.502617 -0.00403543 0)
(0.50374 -0.00294679 0)
(0.504563 -0.00215187 0)
(0.505165 -0.00157115 0)
(0.505606 -0.00114734 0)
(0.505927 -0.00083841 0)
(0.50616 -0.000613119 0)
(0.506331 -0.000448404 0)
(0.506456 -0.000327641 0)
(0.506549 -0.000239095 0)
(0.506617 -0.000174413 0)
(0.506666 -0.000127417 0)
(0.506702 -9.33572e-05 0)
(0.506727 -6.8595e-05 0)
(0.506745 -5.04336e-05 0)
(0.506759 -3.69543e-05 0)
(0.50677 -2.68899e-05 0)
(0.506778 -1.94394e-05 0)
(0.506784 -1.40083e-05 0)
(0.506788 -1.01229e-05 0)
(0.50679 -7.38122e-06 0)
(0.506792 -5.45232e-06 0)
(0.506793 -4.07071e-06 0)
(0.506795 -3.06174e-06 0)
(0.506795 -2.30738e-06 0)
(0.506799 -1.75455e-06 0)
(0.506791 -1.29722e-06 0)
(0.506809 -1.0354e-06 0)
(0.506795 -8.85249e-07 0)
(0.506799 -8.10963e-07 0)
(0.0813534 -0.132769 0)
(0.12726 -0.354665 0)
(0.277358 -0.30045 0)
(0.35478 -0.231163 0)
(0.406965 -0.170392 0)
(0.439403 -0.123764 0)
(0.459828 -0.0895881 0)
(0.473358 -0.0648686 0)
(0.482686 -0.0470378 0)
(0.489283 -0.0341643 0)
(0.494024 -0.0248509 0)
(0.497464 -0.0180977 0)
(0.499973 -0.0131906 0)
(0.501807 -0.00962033 0)
(0.503147 -0.00702082 0)
(0.504127 -0.00512671 0)
(0.504844 -0.00374482 0)
(0.505371 -0.00273535 0)
(0.505757 -0.0019977 0)
(0.50604 -0.0014592 0)
(0.506245 -0.00106652 0)
(0.506395 -0.000780068 0)
(0.506504 -0.000570622 0)
(0.506585 -0.000417049 0)
(0.506645 -0.000304372 0)
(0.506689 -0.000221961 0)
(0.506721 -0.00016204 0)
(0.506743 -0.000118677 0)
(0.506759 -8.72488e-05 0)
(0.506771 -6.42353e-05 0)
(0.50678 -4.71224e-05 0)
(0.506787 -3.42746e-05 0)
(0.506792 -2.46877e-05 0)
(0.506796 -1.76762e-05 0)
(0.506799 -1.2708e-05 0)
(0.5068 -9.28915e-06 0)
(0.506801 -6.95647e-06 0)
(0.506802 -5.33187e-06 0)
(0.506803 -4.15486e-06 0)
(0.506803 -3.2176e-06 0)
(0.506806 -2.44364e-06 0)
(0.506799 -1.77021e-06 0)
(0.506817 -1.33852e-06 0)
(0.506802 -1.09196e-06 0)
(0.506806 -1.06623e-06 0)
(0.371887 -0.548138 0)
(0.184169 -0.550711 0)
(0.383521 -0.443621 0)
(0.441679 -0.307592 0)
(0.472587 -0.207901 0)
(0.486379 -0.143494 0)
(0.493031 -0.101168 0)
(0.4969 -0.0723231 0)
(0.499486 -0.0521538 0)
(0.501348 -0.0378084 0)
(0.502732 -0.0274952 0)
(0.503774 -0.0200329 0)
(0.504558 -0.014613 0)
(0.505144 -0.0106674 0)
(0.505578 -0.00779069 0)
(0.505899 -0.00569135 0)
(0.506138 -0.00415838 0)
(0.506317 -0.0030387 0)
(0.506448 -0.00222085 0)
(0.506544 -0.0016234 0)
(0.506613 -0.00118679 0)
(0.506663 -0.000867529 0)
(0.506701 -0.000633995 0)
(0.506729 -0.000463223 0)
(0.506751 -0.000338476 0)
(0.506766 -0.000247459 0)
(0.506777 -0.000181067 0)
(0.506784 -0.000132571 0)
(0.506789 -9.70582e-05 0)
(0.506793 -7.09875e-05 0)
(0.506796 -5.18273e-05 0)
(0.506799 -3.77706e-05 0)
(0.506801 -2.75086e-05 0)
(0.506803 -2.0058e-05 0)
(0.506803 -1.46456e-05 0)
(0.506803 -1.07109e-05 0)
(0.506803 -7.86645e-06 0)
(0.506804 -5.82239e-06 0)
(0.506804 -4.34495e-06 0)
(0.506804 -3.27466e-06 0)
(0.506807 -2.51589e-06 0)
(0.506799 -1.9815e-06 0)
(0.506818 -1.66002e-06 0)
(0.506802 -1.57816e-06 0)
(0.506806 -1.34981e-06 0)
)
;

boundaryField
{
    inlet
    {
        type            fixedValue;
        value           uniform (1 0 0);
    }
    outlet
    {
        type            zeroGradient;
    }
    upperWall
    {
        type            noSlip;
    }
    lowerWall
    {
        type            noSlip;
    }
    frontAndBack
    {
        type            empty;
    }
}


// ************************************************************************* //
