/*--------------------------------*- C++ -*----------------------------------*\
  =========                 |
  \\      /  F ield         | OpenFOAM: The Open Source CFD Toolbox
   \\    /   O peration     | Website:  https://openfoam.org
    \\  /    A nd           | Version:  10
     \\/     M anipulation  |
\*---------------------------------------------------------------------------*/
FoamFile
{
    format      ascii;
    class       volVectorField;
    location    "0.875";
    object      U;
}
// * * * * * * * * * * * * * * * * * * * * * * * * * * * * * * * * * * * * * //

dimensions      [0 1 -1 0 0 0 0];

internalField   nonuniform List<vector> 
400
(
(-0.000285824 0.000281402 0)
(-0.000926358 0.000327784 0)
(-0.001612 0.000314968 0)
(-0.00224857 0.000291284 0)
(-0.00282728 0.000260298 0)
(-0.00333415 0.000223015 0)
(-0.00375702 0.000180436 0)
(-0.00408597 0.000133613 0)
(-0.00431331 8.36112e-05 0)
(-0.0044336 3.15018e-05 0)
(-0.00444361 -2.16372e-05 0)
(-0.00434237 -7.46909e-05 0)
(-0.00413126 -0.000126497 0)
(-0.00381414 -0.000175832 0)
(-0.00339746 -0.000221402 0)
(-0.00289042 -0.000261874 0)
(-0.00230514 -0.000295923 0)
(-0.00165615 -0.000322207 0)
(-0.00095368 -0.000336747 0)
(-0.000294836 -0.000290082 0)
(-0.000346995 0.000932675 0)
(-0.00111819 0.00107932 0)
(-0.00193837 0.00103677 0)
(-0.00269987 0.000958474 0)
(-0.00339167 0.000856054 0)
(-0.00399703 0.000732964 0)
(-0.00450154 0.00059259 0)
(-0.00489357 0.000438425 0)
(-0.00516418 0.00027398 0)
(-0.00530706 0.000102747 0)
(-0.00531849 -7.17786e-05 0)
(-0.00519739 -0.000245973 0)
(-0.00494538 -0.000416108 0)
(-0.00456693 -0.000578205 0)
(-0.00406958 -0.000728049 0)
(-0.00346413 -0.000861252 0)
(-0.00276486 -0.00097341 0)
(-0.00198914 -0.00105999 0)
(-0.00114964 -0.001108 0)
(-0.000357373 -0.000960445 0)
(-0.000366494 0.00167997 0)
(-0.00118112 0.00193613 0)
(-0.00204699 0.001859 0)
(-0.00284986 0.00171786 0)
(-0.00357839 0.00153346 0)
(-0.00421516 0.00131223 0)
(-0.00474536 0.00106037 0)
(-0.0051572 0.000784187 0)
(-0.0054417 0.000489951 0)
(-0.00559253 0.000183814 0)
(-0.00560589 -0.000128103 0)
(-0.00548054 -0.000439529 0)
(-0.00521788 -0.000743932 0)
(-0.0048221 -0.00103431 0)
(-0.0043005 -0.00130318 0)
(-0.00366384 -0.00154264 0)
(-0.00292669 -0.00174465 0)
(-0.00210713 -0.00190081 0)
(-0.00121842 -0.00198789 0)
(-0.000378795 -0.00173015 0)
(-0.000392772 0.00246124 0)
(-0.00126569 0.00283248 0)
(-0.00219276 0.00271814 0)
(-0.00305092 0.00251023 0)
(-0.00382816 0.00223929 0)
(-0.00450624 0.00191506 0)
(-0.00507003 0.00154682 0)
(-0.00550772 0.00114387 0)
(-0.00581047 0.000715235 0)
(-0.00597208 0.000269653 0)
(-0.00598868 -0.000184297 0)
(-0.0058588 -0.000637898 0)
(-0.00558337 -0.00108195 0)
(-0.00516596 -0.00150652 0)
(-0.00461327 -0.00190075 0)
(-0.00393571 -0.002253 0)
(-0.00314796 -0.00255116 0)
(-0.00226897 -0.00278242 0)
(-0.00131305 -0.00291231 0)
(-0.000408377 -0.00253872 0)
(-0.000429693 0.0033068 0)
(-0.00138415 0.00380215 0)
(-0.00239633 0.00364598 0)
(-0.00333094 0.00336408 0)
(-0.00417499 0.00299808 0)
(-0.00490926 0.00256173 0)
(-0.00551836 0.00206794 0)
(-0.00599073 0.00152924 0)
(-0.00631794 0.000957489 0)
(-0.00649413 0.000363856 0)
(-0.00651549 -0.000240892 0)
(-0.00638017 -0.000845874 0)
(-0.00608837 -0.00143952 0)
(-0.00564262 -0.00200906 0)
(-0.00504851 -0.0025402 0)
(-0.00431559 -0.00301711 0)
(-0.0034584 -0.00342287 0)
(-0.00249686 -0.00373916 0)
(-0.0014468 -0.00391841 0)
(-0.000450336 -0.00341986 0)
(-0.000478872 0.00424046 0)
(-0.00154154 0.00487167 0)
(-0.00266593 0.00466681 0)
(-0.00370035 0.00430043 0)
(-0.0046306 0.00382725 0)
(-0.00543644 0.00326613 0)
(-0.00610259 0.00263431 0)
(-0.00661824 0.00194798 0)
(-0.00697593 0.00122183 0)
(-0.00717053 0.000469213 0)
(-0.00719849 -0.000297385 0)
(-0.0070575 -0.00106548 0)
(-0.00674662 -0.0018216 0)
(-0.0062667 -0.00255045 0)
(-0.00562138 -0.00323424 0)
(-0.00481849 -0.00385242 0)
(-0.00387175 -0.0043822 0)
(-0.00280188 -0.0047981 0)
(-0.00162663 -0.00503658 0)
(-0.000506933 -0.00440131 0)
(-0.000542534 0.00528912 0)
(-0.00174466 0.00607084 0)
(-0.0030123 0.0058072 0)
(-0.00417239 0.00534149 0)
(-0.00520936 0.00474444 0)
(-0.00610221 0.00404162 0)
(-0.00683651 0.00325571 0)
(-0.00740321 0.00240699 0)
(-0.00779671 0.00151295 0)
(-0.00801335 0.000588617 0)
(-0.00805019 -0.000352566 0)
(-0.00790439 -0.00129746 0)
(-0.00757335 -0.00223153 0)
(-0.00705526 -0.00313758 0)
(-0.00635049 -0.00399443 0)
(-0.00546364 -0.00477629 0)
(-0.00440628 -0.00545299 0)
(-0.00319924 -0.00598949 0)
(-0.00186237 -0.00630201 0)
(-0.000581439 -0.00551558 0)
(-0.00062398 0.00648514 0)
(-0.00200341 0.00743488 0)
(-0.00345078 0.00709755 0)
(-0.00476543 0.00651153 0)
(-0.00593056 0.00576777 0)
(-0.00692518 0.00490102 0)
(-0.00773723 0.00394081 0)
(-0.00836101 0.00291208 0)
(-0.00879431 0.00183487 0)
(-0.00903605 0.000725015 0)
(-0.00908457 -0.000404319 0)
(-0.00893647 -0.00154085 0)
(-0.00858674 -0.00267041 0)
(-0.0080296 -0.00377503 0)
(-0.0072601 -0.00483069 0)
(-0.00627716 -0.00580587 0)
(-0.00508773 -0.00666122 0)
(-0.00371104 -0.00734858 0)
(-0.00216869 -0.00775748 0)
(-0.000678843 -0.0068032 0)
(-0.000728212 0.00786875 0)
(-0.00233244 0.00900653 0)
(-0.00400337 0.00857309 0)
(-0.00550498 0.00783677 0)
(-0.00681997 0.00691506 0)
(-0.00792918 0.00585532 0)
(-0.00882546 0.0046959 0)
(-0.00950917 0.00346687 0)
(-0.00998379 0.00219019 0)
(-0.0102525 0.000881154 0)
(-0.0103161 -0.0004493 0)
(-0.0101705 -0.001792 0)
(-0.00980753 -0.00313556 0)
(-0.00921554 -0.0044632 0)
(-0.00838134 -0.00574933 0)
(-0.0072943 -0.00695667 0)
(-0.00595244 -0.00803456 0)
(-0.00436978 -0.00891684 0)
(-0.00256801 -0.00945657 0)
(-0.000806969 -0.00831671 0)
(-0.000863073 0.00949206 0)
(-0.00275403 0.0108391 0)
(-0.00470222 0.0102752 0)
(-0.00642683 0.00934512 0)
(-0.00791213 0.00820235 0)
(-0.00914436 0.0069118 0)
(-0.0101257 0.00552287 0)
(-0.0108667 0.00407102 0)
(-0.01138 0.00257895 0)
(-0.0116756 0.00105913 0)
(-0.0117577 -0.000482615 0)
(-0.0116227 -0.00204345 0)
(-0.0112579 -0.00361842 0)
(-0.0106434 -0.00519545 0)
(-0.00975358 -0.00674993 0)
(-0.00856255 -0.00823975 0)
(-0.00705217 -0.0096011 0)
(-0.00522409 -0.0107433 0)
(-0.00309557 -0.0114683 0)
(-0.000978616 -0.0101274 0)
(-0.00104145 0.0114258 0)
(-0.0033031 0.0130013 0)
(-0.00559524 0.0122526 0)
(-0.00758179 0.0110649 0)
(-0.00925344 0.00964119 0)
(-0.0106087 0.00807061 0)
(-0.0116663 0.00641593 0)
(-0.0124531 0.00471764 0)
(-0.0129957 0.00299683 0)
(-0.0133141 0.00125959 0)
(-0.0134186 -0.000497567 0)
(-0.0133063 -0.0022826 0)
(-0.0129595 -0.00410196 0)
(-0.0123471 -0.00595382 0)
(-0.0114256 -0.00781997 0)
(-0.0101457 -0.0096566 0)
(-0.00846132 -0.011386 0)
(-0.0063483 -0.0128857 0)
(-0.00380892 -0.0138838 0)
(-0.00121591 -0.0123373 0)
(-0.0012857 0.0137708 0)
(-0.00403653 0.0155832 0)
(-0.00675537 0.0145631 0)
(-0.00904298 0.0130217 0)
(-0.0109066 0.0112336 0)
(-0.0123697 0.00931916 0)
(-0.0134787 0.0073568 0)
(-0.0142859 0.00538978 0)
(-0.0148381 0.00343291 0)
(-0.01517 0.00148066 0)
(-0.0152999 -0.000485483 0)
(-0.0152271 -0.00249001 0)
(-0.0149292 -0.00455744 0)
(-0.0143614 -0.00670392 0)
(-0.0134564 -0.00892671 0)
(-0.0121288 -0.0111895 0)
(-0.0102879 -0.0134039 0)
(-0.00785844 -0.0154092 0)
(-0.00480624 -0.0168255 0)
(-0.00155955 -0.0151009 0)
(-0.00163703 0.0166801 0)
(-0.00505079 0.0187057 0)
(-0.00829581 0.0172724 0)
(-0.0109168 0.015232 0)
(-0.0129563 0.0129625 0)
(-0.0144855 0.0106241 0)
(-0.0155957 0.00830924 0)
(-0.016377 0.00605666 0)
(-0.0169049 0.00386714 0)
(-0.0172325 0.00171641 0)
(-0.0173893 -0.000435772 0)
(-0.0173783 -0.00263764 0)
(-0.0171735 -0.00494003 0)
(-0.0167163 -0.00738761 0)
(-0.0159112 -0.0100066 0)
(-0.0146231 -0.0127852 0)
(-0.0126893 -0.0156421 0)
(-0.00993887 -0.0183799 0)
(-0.00626286 -0.0204539 0)
(-0.00208987 -0.0186713 0)
(-0.00217689 0.0203928 0)
(-0.00651732 0.0225249 0)
(-0.0103948 0.0204494 0)
(-0.0133594 0.0176874 0)
(-0.0155148 0.0147774 0)
(-0.017023 0.0119205 0)
(-0.0180462 0.00921052 0)
(-0.018728 0.00666752 0)
(-0.0191784 0.00426643 0)
(-0.0194729 0.0019548 0)
(-0.019654 -0.000336735 0)
(-0.0197314 -0.00268777 0)
(-0.0196792 -0.00518442 0)
(-0.019428 -0.00791309 0)
(-0.018854 -0.0109488 0)
(-0.0177646 -0.0143322 0)
(-0.0158928 -0.0180259 0)
(-0.0128828 -0.0218405 0)
(-0.00851128 -0.0249581 0)
(-0.00298409 -0.0235084 0)
(-0.00307112 0.0254567 0)
(-0.00874578 0.0272657 0)
(-0.0133307 0.0241516 0)
(-0.0165967 0.0203257 0)
(-0.0187236 0.016572 0)
(-0.0200526 0.0130942 0)
(-0.0208487 0.00995932 0)
(-0.0213212 0.00714431 0)
(-0.0216176 0.00458018 0)
(-0.0218357 0.00217479 0)
(-0.0220319 -0.000177815 0)
(-0.0222259 -0.00259377 0)
(-0.0223988 -0.00520255 0)
(-0.0224807 -0.00814574 0)
(-0.0223302 -0.0115725 0)
(-0.0217005 -0.0156192 0)
(-0.0202101 -0.0203582 0)
(-0.0171469 -0.0257306 0)
(-0.012225 -0.0305018 0)
(-0.00467291 -0.0304504 0)
(-0.00481067 0.0314773 0)
(-0.0124931 0.0328406 0)
(-0.0175682 0.0282999 0)
(-0.0209489 0.0229736 0)
(-0.0227463 0.0181422 0)
(-0.023635 0.013956 0)
(-0.0239949 0.0104032 0)
(-0.0241057 0.00737637 0)
(-0.0241462 0.00473871 0)
(-0.024229 0.00234478 0)
(-0.0244205 4.79282e-05 0)
(-0.0247539 -0.00230595 0)
(-0.0252286 -0.00488748 0)
(-0.0257951 -0.00790293 0)
(-0.026324 -0.011602 0)
(-0.0265465 -0.016274 0)
(-0.0260126 -0.0222203 0)
(-0.0233968 -0.0298387 0)
(-0.0187496 -0.0370955 0)
(-0.0081454 -0.0409616 0)
(-0.00718266 0.0456745 0)
(-0.0177555 0.0407316 0)
(-0.0234621 0.0332079 0)
(-0.0267573 0.0254015 0)
(-0.0277176 0.0191501 0)
(-0.0277584 0.0142084 0)
(-0.0273879 0.0103214 0)
(-0.0269394 0.00721643 0)
(-0.0265981 0.00465058 0)
(-0.0264711 0.00241548 0)
(-0.0266231 0.000326912 0)
(-0.0270973 -0.00178884 0)
(-0.0279264 -0.00413754 0)
(-0.0291187 -0.00698929 0)
(-0.0306134 -0.0107247 0)
(-0.0322124 -0.0159177 0)
(-0.0336423 -0.0232881 0)
(-0.0323702 -0.0343703 0)
(-0.0302522 -0.0458526 0)
(-0.015091 -0.0595804 0)
(-0.0171634 0.0504258 0)
(-0.0331774 0.0471344 0)
(-0.0328176 0.036699 0)
(-0.0344644 0.0266638 0)
(-0.0331493 0.0190958 0)
(-0.0315088 0.0135566 0)
(-0.0299115 0.00954327 0)
(-0.0286117 0.00656732 0)
(-0.0277126 0.00426492 0)
(-0.0272594 0.00237043 0)
(-0.0272769 0.00067586 0)
(-0.0278143 -0.00100565 0)
(-0.0289583 -0.00285276 0)
(-0.0308219 -0.00511849 0)
(-0.0335577 -0.00816642 0)
(-0.0371882 -0.0126746 0)
(-0.0421218 -0.0191772 0)
(-0.0434989 -0.0327534 0)
(-0.0483232 -0.0452482 0)
(-0.0238833 -0.0829639 0)
(-0.0355606 0.111654 0)
(-0.0407363 0.0508803 0)
(-0.0340133 0.0366772 0)
(-0.0289409 0.0233843 0)
(-0.0223405 0.0150627 0)
(-0.017114 0.0101511 0)
(-0.0131118 0.00694042 0)
(-0.010229 0.00471232 0)
(-0.00827867 0.00309091 0)
(-0.00712046 0.00183024 0)
(-0.00667645 0.000758667 0)
(-0.00691176 -0.000273158 0)
(-0.00785691 -0.00142134 0)
(-0.00958003 -0.00293774 0)
(-0.0122378 -0.00530697 0)
(-0.0151712 -0.00990819 0)
(-0.0219622 -0.0183814 0)
(-0.0186207 -0.0390208 0)
(-0.0382613 -0.0704056 0)
(-0.00169083 -0.153672 0)
(0.120061 0.102607 0)
(0.126412 0.0444724 0)
(0.187405 0.0261406 0)
(0.208179 0.0151691 0)
(0.221762 0.00858409 0)
(0.231249 0.00516065 0)
(0.237428 0.00329301 0)
(0.241534 0.00216938 0)
(0.244292 0.00144051 0)
(0.246067 0.000930901 0)
(0.247061 0.000543215 0)
(0.247361 0.000222386 0)
(0.246935 -0.000104723 0)
(0.245731 -0.000537085 0)
(0.242737 -0.00121697 0)
(0.239358 -0.00298717 0)
(0.224275 -0.00637024 0)
(0.223522 -0.0163081 0)
(0.143645 -0.0327711 0)
(0.147492 -0.0937567 0)
)
;

boundaryField
{
    movingWall
    {
        type            fixedValue;
        value           uniform (1 0 0);
    }
    fixedWalls
    {
        type            noSlip;
    }
    frontAndBack
    {
        type            empty;
    }
}


// ************************************************************************* //
