/*--------------------------------*- C++ -*----------------------------------*\
  =========                 |
  \\      /  F ield         | OpenFOAM: The Open Source CFD Toolbox
   \\    /   O peration     | Website:  https://openfoam.org
    \\  /    A nd           | Version:  10
     \\/     M anipulation  |
\*---------------------------------------------------------------------------*/
FoamFile
{
    format      ascii;
    class       volVectorField;
    location    "6.6";
    object      U;
}
// * * * * * * * * * * * * * * * * * * * * * * * * * * * * * * * * * * * * * //

dimensions      [0 1 -1 0 0 0 0];

internalField   nonuniform List<vector> 
400
(
(-0.000115939 0.000105977 0)
(-0.00093026 0.000351851 0)
(-0.00231217 0.00043852 0)
(-0.00370212 0.000460557 0)
(-0.00511085 0.000465446 0)
(-0.00649869 0.000466978 0)
(-0.00784547 0.000464365 0)
(-0.00912683 0.000452593 0)
(-0.0103063 0.000425473 0)
(-0.0113337 0.000376123 0)
(-0.0121439 0.000297367 0)
(-0.0126571 0.000182738 0)
(-0.0127818 2.76105e-05 0)
(-0.0124217 -0.000170764 0)
(-0.0114916 -0.000404094 0)
(-0.00993845 -0.000652463 0)
(-0.00777989 -0.000876017 0)
(-0.00519281 -0.00100669 0)
(-0.00228518 -0.000930145 0)
(-0.00037048 -0.000418309 0)
(-0.000390583 0.000942692 0)
(-0.0020864 0.00199679 0)
(-0.00467626 0.00236032 0)
(-0.0072696 0.00243681 0)
(-0.00986179 0.00241433 0)
(-0.0123725 0.00235007 0)
(-0.0147516 0.00224634 0)
(-0.016948 0.00208851 0)
(-0.0188966 0.00185656 0)
(-0.0205154 0.0015281 0)
(-0.0217043 0.00107999 0)
(-0.0223465 0.000491175 0)
(-0.0223152 -0.000251974 0)
(-0.0214779 -0.00114098 0)
(-0.0197203 -0.00213821 0)
(-0.0169808 -0.00316114 0)
(-0.0133065 -0.00405593 0)
(-0.00896699 -0.00455886 0)
(-0.00414582 -0.00423819 0)
(-0.000803166 -0.00221763 0)
(-0.000505482 0.00243364 0)
(-0.00259013 0.00464284 0)
(-0.00570915 0.00538303 0)
(-0.00880838 0.00551255 0)
(-0.0118875 0.00541565 0)
(-0.0148533 0.00521016 0)
(-0.0176486 0.00490633 0)
(-0.0202167 0.00448067 0)
(-0.0224868 0.0038982 0)
(-0.0243712 0.00311853 0)
(-0.0257629 0.00209986 0)
(-0.0265356 0.000805085 0)
(-0.0265386 -0.000787098 0)
(-0.0256099 -0.00266338 0)
(-0.0236041 -0.00474966 0)
(-0.0204215 -0.0068812 0)
(-0.0160843 -0.00874665 0)
(-0.010891 -0.009802 0)
(-0.00504687 -0.00916501 0)
(-0.000975088 -0.00504168 0)
(-0.000541475 0.00400617 0)
(-0.00278968 0.0074425 0)
(-0.00614824 0.00856433 0)
(-0.00947358 0.0087359 0)
(-0.0127786 0.00855622 0)
(-0.0159703 0.00820657 0)
(-0.0189962 0.00770513 0)
(-0.0218054 0.00701965 0)
(-0.0243323 0.00609956 0)
(-0.0264922 0.00488387 0)
(-0.0281763 0.00330706 0)
(-0.029247 0.001309 0)
(-0.0295339 -0.00114899 0)
(-0.0288276 -0.004069 0)
(-0.0269064 -0.00735736 0)
(-0.0235803 -0.0107738 0)
(-0.0187858 -0.0138302 0)
(-0.0128268 -0.01563 0)
(-0.00592396 -0.0147098 0)
(-0.00110761 -0.00815486 0)
(-0.000550598 0.00565506 0)
(-0.00288689 0.0103948 0)
(-0.00639488 0.011919 0)
(-0.00986854 0.0121391 0)
(-0.0133354 0.0118853 0)
(-0.0167079 0.0114068 0)
(-0.0199452 0.0107313 0)
(-0.0230093 0.00981825 0)
(-0.0258473 0.00860047 0)
(-0.0283844 0.00699244 0)
(-0.0305142 0.00489572 0)
(-0.0320876 0.00221088 0)
(-0.0329048 -0.00114346 0)
(-0.0326921 -0.00520923 0)
(-0.0311149 -0.00990128 0)
(-0.027829 -0.0149196 0)
(-0.0225966 -0.0195695 0)
(-0.0156612 -0.0224822 0)
(-0.00723196 -0.0213664 0)
(-0.00129876 -0.0118321 0)
(-0.000554046 0.00734721 0)
(-0.00296509 0.0134601 0)
(-0.00661081 0.015412 0)
(-0.0102269 0.0156946 0)
(-0.0138557 0.015386 0)
(-0.0174185 0.0148101 0)
(-0.020891 0.0140066 0)
(-0.0242545 0.0129284 0)
(-0.0274772 0.0114911 0)
(-0.0305047 0.00958071 0)
(-0.0332434 0.00705516 0)
(-0.0355415 0.00375221 0)
(-0.0371783 -0.00048954 0)
(-0.0378023 -0.00577619 0)
(-0.0369228 -0.0121164 0)
(-0.0339626 -0.0191917 0)
(-0.0283745 -0.0260808 0)
(-0.0201796 -0.0307765 0)
(-0.00942539 -0.0297259 0)
(-0.00163392 -0.0163921 0)
(-0.000557246 0.00907835 0)
(-0.00304879 0.0166365 0)
(-0.00684334 0.0190442 0)
(-0.0106118 0.0194055 0)
(-0.0144122 0.0190661 0)
(-0.0181773 0.0184325 0)
(-0.0219042 0.0175617 0)
(-0.0256013 0.0164034 0)
(-0.0292691 0.0148582 0)
(-0.0328891 0.0127822 0)
(-0.0364038 0.00998117 0)
(-0.0396855 0.00620839 0)
(-0.0424872 0.00118312 0)
(-0.0444182 -0.0053477 0)
(-0.0448353 -0.0135773 0)
(-0.0428128 -0.0232846 0)
(-0.0373022 -0.033387 0)
(-0.0277384 -0.0410831 0)
(-0.0134899 -0.040817 0)
(-0.00232838 -0.0224957 0)
(-0.000560674 0.0108536 0)
(-0.00314264 0.0199368 0)
(-0.00710049 0.0228284 0)
(-0.0110277 0.0232813 0)
(-0.015 0.0229326 0)
(-0.018963 0.0222825 0)
(-0.0229404 0.0214126 0)
(-0.0269758 0.020277 0)
(-0.0311151 0.0187689 0)
(-0.0353971 0.0167195 0)
(-0.0398312 0.0138818 0)
(-0.0443557 0.00991224 0)
(-0.0487721 0.00436457 0)
(-0.0527026 -0.00328655 0)
(-0.0553894 -0.0134887 0)
(-0.0555612 -0.0264004 0)
(-0.0514493 -0.0410537 0)
(-0.0411353 -0.0539524 0)
(-0.0218978 -0.0563748 0)
(-0.00401674 -0.0316519 0)
(-0.00056494 0.012679 0)
(-0.00324961 0.0233748 0)
(-0.00738456 0.0267732 0)
(-0.0114683 0.0273209 0)
(-0.0155965 0.026975 0)
(-0.0197284 0.0263429 0)
(-0.0239176 0.0255414 0)
(-0.0282505 0.0245413 0)
(-0.032832 0.0232435 0)
(-0.0377821 0.0214712 0)
(-0.0432197 0.0189395 0)
(-0.0492243 0.0152122 0)
(-0.0557648 0.00965423 0)
(-0.0625793 0.00142418 0)
(-0.0690599 -0.0103918 0)
(-0.0738635 -0.0266632 0)
(-0.0742705 -0.0473747 0)
(-0.0653186 -0.0693695 0)
(-0.0394809 -0.0794121 0)
(-0.00816655 -0.0472586 0)
(-0.000573202 0.0145635 0)
(-0.00337961 0.0269663 0)
(-0.00770726 0.0308823 0)
(-0.0119361 0.0315096 0)
(-0.0161857 0.0311601 0)
(-0.0204281 0.0305641 0)
(-0.0247478 0.0298862 0)
(-0.0292771 0.0291304 0)
(-0.0341892 0.0282287 0)
(-0.0397075 0.0270304 0)
(-0.0461057 0.0252581 0)
(-0.0536928 0.0224371 0)
(-0.062759 0.0177998 0)
(-0.0734949 0.010212 0)
(-0.0859473 -0.00186556 0)
(-0.0993289 -0.0204634 0)
(-0.109479 -0.0485565 0)
(-0.104593 -0.0864554 0)
(-0.0697651 -0.115211 0)
(-0.0164023 -0.0764749 0)
(-0.000593452 0.016527 0)
(-0.00355644 0.0307354 0)
(-0.00810054 0.0351561 0)
(-0.0124556 0.0358186 0)
(-0.016773 0.0354294 0)
(-0.0210359 0.0348583 0)
(-0.025357 0.0343307 0)
(-0.0299112 0.0339019 0)
(-0.0349361 0.0335647 0)
(-0.040761 0.0332435 0)
(-0.0478406 0.0327482 0)
(-0.0567981 0.0316931 0)
(-0.0684642 0.0293836 0)
(-0.0839286 0.0246867 0)
(-0.104539 0.0156294 0)
(-0.130517 -0.00243299 0)
(-0.153696 -0.0398441 0)
(-0.150518 -0.106384 0)
(-0.104982 -0.170489 0)
(-0.0294695 -0.127999 0)
(-0.000642593 0.0186119 0)
(-0.00382786 0.0347303 0)
(-0.00862936 0.03961 0)
(-0.0130856 0.0402211 0)
(-0.017399 0.0397105 0)
(-0.0215623 0.0391059 0)
(-0.0257103 0.0387048 0)
(-0.030047 0.0386293 0)
(-0.0348531 0.0389659 0)
(-0.0405376 0.0397756 0)
(-0.0477102 0.0410677 0)
(-0.0572966 0.0427489 0)
(-0.0706932 0.0445495 0)
(-0.0900161 0.0457694 0)
(-0.118126 0.0437243 0)
(-0.154667 0.0276073 0)
(-0.184249 -0.0261628 0)
(-0.174859 -0.136979 0)
(-0.128816 -0.243269 0)
(-0.045228 -0.208876 0)
(-0.000750963 0.0208778 0)
(-0.00427011 0.0389581 0)
(-0.00939847 0.0441498 0)
(-0.0139346 0.0445575 0)
(-0.0181615 0.0438148 0)
(-0.0220788 0.0430917 0)
(-0.0258403 0.0427394 0)
(-0.0296549 0.042954 0)
(-0.0337971 0.0439353 0)
(-0.038679 0.0459276 0)
(-0.0449509 0.0492455 0)
(-0.0536601 0.0542974 0)
(-0.0664468 0.0615325 0)
(-0.0856453 0.0705293 0)
(-0.114288 0.0763088 0)
(-0.149615 0.0588655 0)
(-0.173498 -0.0155998 0)
(-0.158187 -0.16762 0)
(-0.133318 -0.309438 0)
(-0.0522685 -0.312927 0)
(-0.00100532 0.0236002 0)
(-0.00510185 0.043927 0)
(-0.0106344 0.0493707 0)
(-0.0151535 0.04941 0)
(-0.019155 0.0481589 0)
(-0.0226748 0.0470148 0)
(-0.0258539 0.0464241 0)
(-0.0288567 0.0466611 0)
(-0.031892 0.048032 0)
(-0.0352625 0.050966 0)
(-0.0394469 0.0561025 0)
(-0.0452085 0.064345 0)
(-0.053748 0.0767422 0)
(-0.0661413 0.0922696 0)
(-0.0844136 0.102733 0)
(-0.10452 0.0812389 0)
(-0.118495 -0.00690469 0)
(-0.106697 -0.179371 0)
(-0.112936 -0.35176 0)
(-0.0403929 -0.41102 0)
(-0.0013728 0.026932 0)
(-0.00607387 0.048354 0)
(-0.0122892 0.0531869 0)
(-0.016968 0.0522851 0)
(-0.0208337 0.0505182 0)
(-0.0238383 0.0491533 0)
(-0.0261942 0.0484976 0)
(-0.02805 0.0487547 0)
(-0.0295044 0.0502496 0)
(-0.0306419 0.0535105 0)
(-0.031597 0.0593727 0)
(-0.0324659 0.0689371 0)
(-0.0336614 0.0834081 0)
(-0.0344419 0.100804 0)
(-0.0365937 0.112255 0)
(-0.0356802 0.0888314 0)
(-0.0414286 -0.001578 0)
(-0.0364184 -0.170014 0)
(-0.0728742 -0.364576 0)
(-0.0211913 -0.475976 0)
(-0.00344553 0.0299351 0)
(-0.0104649 0.0566178 0)
(-0.0160831 0.0613829 0)
(-0.0198976 0.059968 0)
(-0.0226765 0.0567449 0)
(-0.0247859 0.0539136 0)
(-0.0262738 0.0519266 0)
(-0.0270817 0.0510332 0)
(-0.0270638 0.051523 0)
(-0.0259877 0.0538525 0)
(-0.0235715 0.0588172 0)
(-0.0191258 0.0673468 0)
(-0.0126414 0.080563 0)
(-0.0014594 0.0961105 0)
(0.0108224 0.106664 0)
(0.0293052 0.0855699 0)
(0.0308524 0.00356014 0)
(0.0313573 -0.142509 0)
(-0.0349073 -0.348888 0)
(-0.00278592 -0.508375 0)
(-0.00111361 0.0438119 0)
(-0.0084794 0.0589111 0)
(-0.0190935 0.0598963 0)
(-0.0232327 0.0555098 0)
(-0.0266889 0.0523166 0)
(-0.0282772 0.0500943 0)
(-0.0287243 0.048652 0)
(-0.0280246 0.0478913 0)
(-0.0260599 0.0479937 0)
(-0.022452 0.0492604 0)
(-0.0167239 0.0524016 0)
(-0.0075553 0.0578321 0)
(0.00519834 0.0666161 0)
(0.0252178 0.0768434 0)
(0.0466298 0.0827492 0)
(0.0766662 0.0665554 0)
(0.0808224 0.00264265 0)
(0.0799226 -0.107785 0)
(-0.000885782 -0.31822 0)
(0.0226793 -0.516517 0)
(-0.0124771 0.0326217 0)
(-0.0240898 0.0799034 0)
(-0.0233686 0.0790551 0)
(-0.029325 0.0739254 0)
(-0.0309816 0.0666163 0)
(-0.0308729 0.060477 0)
(-0.0288369 0.0554426 0)
(-0.0251644 0.0514761 0)
(-0.0199309 0.0485655 0)
(-0.0127994 0.0465608 0)
(-0.00388002 0.0458703 0)
(0.00848949 0.0465686 0)
(0.0237681 0.04962 0)
(0.0457828 0.0533999 0)
(0.0664714 0.056661 0)
(0.0998369 0.0469953 0)
(0.102698 0.00868074 0)
(0.121139 -0.0694961 0)
(0.05107 -0.284156 0)
(0.0597677 -0.499423 0)
(-0.0773967 0.096482 0)
(-0.0631264 0.0591884 0)
(-0.0655705 0.0598914 0)
(-0.0439849 0.0532176 0)
(-0.0268475 0.0463059 0)
(-0.00694715 0.0411537 0)
(0.0118238 0.0374018 0)
(0.0308097 0.0342141 0)
(0.0483137 0.0318538 0)
(0.0670779 0.0296193 0)
(0.0833426 0.028331 0)
(0.10386 0.0273639 0)
(0.118858 0.0272018 0)
(0.147672 0.0275543 0)
(0.158686 0.0239676 0)
(0.204099 0.0168989 0)
(0.197203 -0.0174192 0)
(0.233473 -0.0782864 0)
(0.161441 -0.258627 0)
(0.126107 -0.439196 0)
(0.119632 0.140799 0)
(0.15237 0.0861938 0)
(0.229084 0.0635946 0)
(0.284518 0.0481223 0)
(0.325755 0.0374447 0)
(0.364098 0.0296505 0)
(0.392664 0.0241903 0)
(0.423866 0.0201746 0)
(0.443762 0.017251 0)
(0.472286 0.0150341 0)
(0.484914 0.0132833 0)
(0.514687 0.0121984 0)
(0.519741 0.011031 0)
(0.553705 0.0105027 0)
(0.548804 0.00878772 0)
(0.584295 0.00466009 0)
(0.555036 -0.00461186 0)
(0.562545 -0.0276989 0)
(0.426405 -0.0728307 0)
(0.27614 -0.15208 0)
)
;

boundaryField
{
    movingWall
    {
        type            fixedValue;
        value           uniform (1 0 0);
    }
    fixedWalls
    {
        type            noSlip;
    }
    frontAndBack
    {
        type            empty;
    }
}


// ************************************************************************* //
