/*--------------------------------*- C++ -*----------------------------------*\
  =========                 |
  \\      /  F ield         | OpenFOAM: The Open Source CFD Toolbox
   \\    /   O peration     | Website:  https://openfoam.org
    \\  /    A nd           | Version:  10
     \\/     M anipulation  |
\*---------------------------------------------------------------------------*/
FoamFile
{
    format      ascii;
    class       surfaceScalarField;
    location    "0.125";
    object      phi;
}
// * * * * * * * * * * * * * * * * * * * * * * * * * * * * * * * * * * * * * //

dimensions      [0 3 -1 0 0 0 0];

internalField   nonuniform List<scalar> 
760
(
-2.55903e-06
2.55903e-06
-5.11844e-06
2.55941e-06
-7.54552e-06
2.42708e-06
-9.77828e-06
2.23276e-06
-1.17618e-05
1.98355e-06
-1.3449e-05
1.68721e-06
-1.48012e-05
1.3522e-06
-1.57885e-05
9.87265e-07
-1.63896e-05
6.01125e-07
-1.6592e-05
2.02332e-07
-1.63912e-05
-2.00711e-07
-1.57916e-05
-5.99658e-07
-1.48055e-05
-9.86092e-07
-1.34541e-05
-1.35143e-06
-1.17671e-05
-1.68693e-06
-9.78334e-06
-1.98379e-06
-7.54983e-06
-2.23351e-06
-5.12157e-06
-2.42826e-06
-2.56066e-06
-2.56091e-06
-2.56066e-06
-2.69233e-06
5.25135e-06
-5.38357e-06
5.25066e-06
-7.93449e-06
4.978e-06
-1.02796e-05
4.57792e-06
-1.23615e-05
4.06536e-06
-1.41308e-05
3.4566e-06
-1.55479e-05
2.76922e-06
-1.65818e-05
2.02124e-06
-1.72111e-05
1.23043e-06
-1.74229e-05
4.14128e-07
-1.72129e-05
-4.10723e-07
-1.65852e-05
-1.22734e-06
-1.55526e-05
-2.01877e-06
-1.41364e-05
-2.76761e-06
-1.23673e-05
-3.45601e-06
-1.02852e-05
-4.06587e-06
-7.93927e-06
-4.57949e-06
-5.38704e-06
-4.98049e-06
-2.69413e-06
-5.25382e-06
-5.25479e-06
-2.83029e-06
8.08165e-06
-5.658e-06
8.07837e-06
-8.33545e-06
7.65545e-06
-1.07934e-05
7.03591e-06
-1.29719e-05
6.24379e-06
-1.48203e-05
5.30501e-06
-1.62983e-05
4.24723e-06
-1.73754e-05
3.09832e-06
-1.80303e-05
1.8854e-06
-1.82508e-05
6.34539e-07
-1.80324e-05
-6.29033e-07
-1.73794e-05
-1.8804e-06
-1.63038e-05
-3.09431e-06
-1.48268e-05
-4.2446e-06
-1.29788e-05
-5.30403e-06
-1.08001e-05
-6.24459e-06
-8.34114e-06
-7.03845e-06
-5.66214e-06
-7.65949e-06
-2.83245e-06
-8.0835e-06
-8.08725e-06
-3.0436e-06
1.11252e-05
-6.08176e-06
1.11165e-05
-8.95359e-06
1.05273e-05
-1.1584e-05
9.6663e-06
-1.3909e-05
8.56884e-06
-1.58765e-05
7.27247e-06
-1.74457e-05
5.81648e-06
-1.85869e-05
4.23952e-06
-1.92799e-05
2.57839e-06
-1.95131e-05
8.67695e-07
-1.92826e-05
-8.59576e-07
-1.85919e-05
-2.57102e-06
-1.74527e-05
-4.23359e-06
-1.58847e-05
-5.81256e-06
-1.39177e-05
-7.27099e-06
-1.15923e-05
-8.56999e-06
-8.96077e-06
-9.67003e-06
-6.08699e-06
-1.05333e-05
-3.04634e-06
-1.11242e-05
-1.11336e-05
-3.34119e-06
1.44664e-05
-6.67198e-06
1.44473e-05
-9.81244e-06
1.36677e-05
-1.26791e-05
1.25329e-05
-1.5203e-05
1.10928e-05
-1.73303e-05
9.39972e-06
-1.90207e-05
7.50691e-06
-2.02463e-05
5.46513e-06
-2.0989e-05
3.3211e-06
-2.12388e-05
1.11748e-06
-2.09924e-05
-1.106e-06
-2.02527e-05
-3.31066e-06
-1.90296e-05
-5.45668e-06
-1.73409e-05
-7.50129e-06
-1.52143e-05
-9.39753e-06
-1.269e-05
-1.10943e-05
-9.82186e-06
-1.25382e-05
-6.67887e-06
-1.36763e-05
-3.3448e-06
-1.44582e-05
-1.44784e-05
-3.73564e-06
1.82021e-05
-7.45248e-06
1.81642e-05
-1.09442e-05
1.71594e-05
-1.41158e-05
1.57045e-05
-1.68928e-05
1.38698e-05
-1.92201e-05
1.17271e-05
-2.106e-05
9.34674e-06
-2.23882e-05
6.79334e-06
-2.31907e-05
4.12363e-06
-2.34604e-05
1.3872e-06
-2.31951e-05
-1.37135e-06
-2.23966e-05
-4.10916e-06
-2.10717e-05
-6.78157e-06
-1.92342e-05
-9.33881e-06
-1.69079e-05
-1.17238e-05
-1.41304e-05
-1.38718e-05
-1.09568e-05
-1.57118e-05
-7.46178e-06
-1.71713e-05
-3.74053e-06
-1.81795e-05
-1.82189e-05
-4.2454e-06
2.24475e-05
-8.45777e-06
2.23765e-05
-1.23945e-05
2.10961e-05
-1.59458e-05
1.92559e-05
-1.90312e-05
1.69552e-05
-2.15967e-05
1.42926e-05
-2.36104e-05
1.13603e-05
-2.50555e-05
8.23844e-06
-2.59251e-05
4.99328e-06
-2.62171e-05
1.67919e-06
-2.59309e-05
-1.65756e-06
-2.50666e-05
-4.97348e-06
-2.36259e-05
-8.22221e-06
-2.16155e-05
-1.13492e-05
-1.90514e-05
-1.42879e-05
-1.59656e-05
-1.69577e-05
-1.24117e-05
-1.92656e-05
-8.47053e-06
-2.11125e-05
-4.25214e-06
-2.23979e-05
-2.24711e-05
-4.89753e-06
2.7345e-05
-9.73769e-06
2.72167e-05
-1.42279e-05
2.55863e-05
-1.82397e-05
2.32677e-05
-2.1688e-05
2.04034e-05
-2.45244e-05
1.71291e-05
-2.67288e-05
1.35647e-05
-2.82981e-05
9.80774e-06
-2.92373e-05
5.93244e-06
-2.95521e-05
1.99402e-06
-2.92449e-05
-1.9648e-06
-2.83128e-05
-5.90557e-06
-2.67495e-05
-9.78548e-06
-2.45495e-05
-1.35492e-05
-2.17153e-05
-1.71221e-05
-1.82668e-05
-2.04062e-05
-1.42517e-05
-2.32807e-05
-9.75546e-06
-2.56087e-05
-4.90696e-06
-2.72464e-05
-2.7378e-05
-5.73255e-06
3.30776e-05
-1.13653e-05
3.28494e-05
-1.65363e-05
3.07573e-05
-2.10945e-05
2.7826e-05
-2.49546e-05
2.42635e-05
-2.80833e-05
2.02577e-05
-3.04821e-05
1.59636e-05
-3.21711e-05
1.14967e-05
-3.31742e-05
6.93554e-06
-3.35097e-05
2.32951e-06
-3.31841e-05
-2.29037e-06
-3.21904e-05
-6.89932e-06
-3.05095e-05
-1.14663e-05
-2.81169e-05
-1.59419e-05
-2.49917e-05
-2.02472e-05
-2.11317e-05
-2.42663e-05
-1.65694e-05
-2.78429e-05
-1.13903e-05
-3.07879e-05
-5.74595e-06
-3.28907e-05
-3.3124e-05
-6.81293e-06
3.98905e-05
-1.34498e-05
3.94863e-05
-1.94517e-05
3.67592e-05
-2.46434e-05
3.30177e-05
-2.89505e-05
2.85706e-05
-3.2371e-05
2.36782e-05
-3.49454e-05
1.8538e-05
-3.67305e-05
1.32818e-05
-3.77795e-05
7.98456e-06
-3.81292e-05
2.67918e-06
-3.77924e-05
-2.62721e-06
-3.67556e-05
-7.93609e-06
-3.49815e-05
-1.32404e-05
-3.24158e-05
-1.85075e-05
-2.90008e-05
-2.36623e-05
-2.46947e-05
-2.85724e-05
-1.94983e-05
-3.30393e-05
-1.34856e-05
-3.68005e-05
-6.83232e-06
-3.9544e-05
-3.99563e-05
-8.2391e-06
4.81296e-05
-1.61598e-05
4.74069e-05
-2.3168e-05
4.37674e-05
-2.90711e-05
3.89209e-05
-3.38304e-05
3.33299e-05
-3.75044e-05
2.73523e-05
-4.01988e-05
2.12324e-05
-4.20271e-05
1.51102e-05
-4.30855e-05
9.04291e-06
-4.34365e-05
3.03023e-06
-4.31018e-05
-2.96192e-06
-4.20593e-05
-8.97858e-06
-4.02456e-05
-1.50541e-05
-3.75637e-05
-2.11894e-05
-3.38984e-05
-2.73276e-05
-2.9142e-05
-3.33287e-05
-2.3234e-05
-3.89474e-05
-1.62116e-05
-4.38229e-05
-8.26781e-06
-4.74878e-05
-4.82241e-05
-1.01808e-05
5.83104e-05
-1.97625e-05
5.69887e-05
-2.79742e-05
5.19791e-05
-3.46351e-05
4.55818e-05
-3.97932e-05
3.84879e-05
-4.3618e-05
3.11771e-05
-4.63194e-05
2.39338e-05
-4.80954e-05
1.68861e-05
-4.91006e-05
1.00481e-05
-4.94316e-05
3.36122e-06
-4.91209e-05
-3.27259e-06
-4.81358e-05
-9.96367e-06
-4.63793e-05
-1.68106e-05
-4.36956e-05
-2.38732e-05
-3.98845e-05
-3.11387e-05
-3.47334e-05
-3.84799e-05
-2.80688e-05
-4.5612e-05
-1.98393e-05
-5.20524e-05
-1.02246e-05
-5.71024e-05
-5.84487e-05
-1.29419e-05
7.12523e-05
-2.46959e-05
6.87426e-05
-3.43074e-05
6.15906e-05
-4.1693e-05
5.29674e-05
-4.70886e-05
4.38834e-05
-5.08558e-05
3.49443e-05
-5.33672e-05
2.64452e-05
-5.49369e-05
1.84558e-05
-5.57929e-05
1.09042e-05
-5.60714e-05
3.63966e-06
-5.58174e-05
-3.52654e-06
-5.49863e-05
-1.07948e-05
-5.3442e-05
-1.83549e-05
-5.09554e-05
-2.63597e-05
-4.72102e-05
-3.48839e-05
-4.18292e-05
-4.38609e-05
-3.44442e-05
-5.2997e-05
-2.48122e-05
-6.16844e-05
-1.30117e-05
-6.8903e-05
-7.14604e-05
-1.71005e-05
8.83527e-05
-3.16957e-05
8.33378e-05
-4.28325e-05
7.27275e-05
-5.07346e-05
6.08695e-05
-5.60106e-05
4.91594e-05
-5.9351e-05
3.82847e-05
-6.13606e-05
2.84548e-05
-6.24967e-05
1.95919e-05
-6.30675e-05
1.1475e-05
-6.32482e-05
3.82032e-06
-6.30957e-05
-3.67898e-06
-6.25547e-05
-1.13359e-05
-6.14507e-05
-1.94589e-05
-5.94757e-05
-2.83348e-05
-5.61698e-05
-3.81898e-05
-5.09224e-05
-4.91082e-05
-4.30325e-05
-6.0887e-05
-3.18767e-05
-7.28402e-05
-1.72176e-05
-8.3562e-05
-8.8678e-05
-2.38191e-05
0.000112172
-4.20248e-05
0.000101544
-5.45561e-05
8.52588e-05
-6.23935e-05
6.87069e-05
-6.68691e-05
5.3635e-05
-6.91841e-05
4.05997e-05
-7.02356e-05
2.95063e-05
-7.06292e-05
1.99855e-05
-7.07387e-05
1.15845e-05
-7.07642e-05
3.84584e-06
-7.07692e-05
-3.67398e-06
-7.06933e-05
-1.14118e-05
-7.03389e-05
-1.98132e-05
-6.9334e-05
-2.93398e-05
-6.70719e-05
-4.04519e-05
-6.26493e-05
-5.35308e-05
-5.48499e-05
-6.86864e-05
-4.23141e-05
-8.53761e-05
-2.40282e-05
-0.000101848
-0.000112706
-3.55475e-05
0.000147719
-5.78777e-05
0.000123874
-7.09414e-05
9.83226e-05
-7.74106e-05
7.51761e-05
-7.99053e-05
5.61297e-05
-8.02995e-05
4.09939e-05
-7.97833e-05
2.89902e-05
-7.90569e-05
1.92591e-05
-7.85041e-05
1.10316e-05
-7.83109e-05
3.65263e-06
-7.85339e-05
-3.45092e-06
-7.91216e-05
-1.08242e-05
-7.98927e-05
-1.9042e-05
-8.04685e-05
-2.87639e-05
-8.01518e-05
-4.07686e-05
-7.77497e-05
-5.59329e-05
-7.1371e-05
-7.5065e-05
-5.83515e-05
-9.83955e-05
-3.59431e-05
-0.000124256
-0.000148649
-5.75739e-05
0.000205293
-8.30341e-05
0.000149334
-9.38948e-05
0.000109183
-9.64527e-05
7.7734e-05
-9.50955e-05
5.47725e-05
-9.2362e-05
3.82604e-05
-8.9568e-05
2.61961e-05
-8.73329e-05
1.70241e-05
-8.59265e-05
9.62518e-06
-8.54559e-05
3.18202e-06
-8.59509e-05
-2.95595e-06
-8.73884e-05
-9.38667e-06
-8.96691e-05
-1.67613e-05
-9.2533e-05
-2.59e-05
-9.5372e-05
-3.79296e-05
-9.68788e-05
-5.44261e-05
-9.45085e-05
-7.74354e-05
-8.38271e-05
-0.000109077
-5.84089e-05
-0.000149674
-0.000207058
-0.000103956
0.00030925
-0.000123069
0.000168447
-0.00012527
0.000111384
-0.000119503
7.19666e-05
-0.000111678
4.69476e-05
-0.000104465
3.10472e-05
-9.87415e-05
2.04727e-05
-9.4702e-05
1.29845e-05
-9.23211e-05
7.24422e-06
-9.15389e-05
2.39985e-06
-9.2332e-05
-2.16285e-06
-9.47313e-05
-6.98737e-06
-9.88064e-05
-1.26862e-05
-0.000104597
-2.01089e-05
-0.000111933
-3.05943e-05
-0.000119964
-4.63945e-05
-0.000126051
-7.13488e-05
-0.00012423
-0.000110898
-0.000105365
-0.000168539
-0.000312423
-0.000163223
0.000472473
-0.000168047
0.000173271
-0.000153099
9.64356e-05
-0.000132969
5.18368e-05
-0.000115928
2.99071e-05
-0.000103153
1.82723e-05
-9.41614e-05
1.14808e-05
-8.82623e-05
7.08544e-06
-8.49208e-05
3.90271e-06
-8.38211e-05
1.3002e-06
-8.48599e-05
-1.12406e-06
-8.81387e-05
-3.70859e-06
-9.39718e-05
-6.8531e-06
-0.000102894
-1.1187e-05
-0.000115592
-1.78961e-05
-0.000132537
-2.94498e-05
-0.000152574
-5.13111e-05
-0.000166961
-9.6511e-05
-0.000161446
-0.000174055
-0.000473869
0.000472473
0.000645744
0.000742179
0.000794016
0.000823923
0.000842196
0.000853676
0.000860762
0.000864665
0.000865965
0.000864841
0.000861132
0.000854279
0.000843092
0.000825196
0.000795746
0.000744435
0.000647924
0.000473869
)
;

boundaryField
{
    movingWall
    {
        type            calculated;
        value           uniform 0;
    }
    fixedWalls
    {
        type            calculated;
        value           uniform 0;
    }
    frontAndBack
    {
        type            empty;
        value           nonuniform List<scalar> 0();
    }
}


// ************************************************************************* //
