/*--------------------------------*- C++ -*----------------------------------*\
  =========                 |
  \\      /  F ield         | OpenFOAM: The Open Source CFD Toolbox
   \\    /   O peration     | Website:  https://openfoam.org
    \\  /    A nd           | Version:  10
     \\/     M anipulation  |
\*---------------------------------------------------------------------------*/
FoamFile
{
    format      ascii;
    class       volScalarField;
    location    "6.925";
    object      p;
}
// * * * * * * * * * * * * * * * * * * * * * * * * * * * * * * * * * * * * * //

dimensions      [0 2 -2 0 0 0 0];

internalField   nonuniform List<scalar> 
400
(
-1.0233e-08
-2.12959e-05
2.92106e-05
0.00012673
0.000277971
0.000484897
0.000750282
0.00107731
0.0014685
0.00192469
0.00244382
0.00301933
0.00363821
0.00427932
0.00491168
0.0054953
0.00598356
0.00633049
0.00652707
0.00649617
2.21469e-05
4.7533e-07
5.63234e-05
0.000154641
0.000303709
0.000506306
0.00076571
0.00108545
0.00146834
0.00191569
0.0024261
0.00299376
0.00360609
0.00424413
0.00487714
0.00546496
0.00595931
0.0063125
0.00651802
0.00647913
-3.63996e-05
-6.54178e-05
-1.12707e-05
8.3226e-05
0.000227177
0.000423656
0.000676549
0.000990305
0.00136904
0.00181565
0.00233065
0.00291043
0.00354587
0.00421785
0.00489488
0.00553264
0.00607454
0.00646118
0.00668419
0.00661864
-0.000156245
-0.000190541
-0.000139588
-5.10405e-05
8.51173e-05
0.000272426
0.00051569
0.000820747
0.00119366
0.00163996
0.00216339
0.00276397
0.00343534
0.00416262
0.0049135
0.00563784
0.00626507
0.00671292
0.00696948
0.00686402
-0.000343821
-0.000382882
-0.000337027
-0.000256949
-0.000131692
4.28719e-05
0.000272689
0.000565345
0.000929415
0.00137398
0.00190751
0.00253543
0.00325655
0.00406235
0.00492059
0.00577505
0.00653608
0.00708477
0.00739818
0.0072221
-0.000598118
-0.000642249
-0.000603476
-0.000534814
-0.000424468
-0.000267731
-5.74711e-05
0.000215793
0.000563504
0.000998988
0.00153682
0.00219082
0.0029701
0.00386899
0.00486894
0.0059082
0.00687225
0.00758438
0.00799407
0.00768784
-0.00091625
-0.000966278
-0.000936741
-0.000883064
-0.000792805
-0.000660905
-0.000479276
-0.000236747
8.09317e-05
0.000491562
0.00101665
0.00168064
0.00250667
0.0035066
0.00467429
0.00595957
0.0072244
0.00820633
0.00878695
0.00824812
-0.00129455
-0.00135159
-0.0013336
-0.00129899
-0.00123501
-0.00113674
-0.000995831
-0.000800155
-0.00053348
-0.000174268
0.000305576
0.000941815
0.00177617
0.00284887
0.00417942
0.00576115
0.00745521
0.00889999
0.00978358
0.0088928
-0.00172832
-0.00179361
-0.0017893
-0.00177789
-0.00174681
-0.00169208
-0.0016062
-0.00147769
-0.00129036
-0.00102127
-0.000638517
-9.80777e-05
0.000659662
0.00170554
0.00310818
0.00495399
0.00718165
0.00942949
0.0108367
0.0096337
-0.00221177
-0.00228649
-0.0022972
-0.0023123
-0.00232012
-0.00231869
-0.0023029
-0.00226413
-0.00218963
-0.00206055
-0.00184886
-0.00151231
-0.000987795
-0.000186506
0.00101166
0.00273217
0.00532045
0.00879148
0.0111216
0.0103737
-0.00273838
-0.00282346
-0.00284875
-0.00289159
-0.00294205
-0.00300146
-0.00306901
-0.00314169
-0.00321456
-0.00327998
-0.00332664
-0.00333849
-0.00329421
-0.00317724
-0.00297885
-0.00249898
-0.000742496
0.00377443
0.00801666
0.010185
-0.00330196
-0.00339752
-0.00343341
-0.00350132
-0.00359378
-0.00371669
-0.00387515
-0.00407443
-0.00432212
-0.00463031
-0.00502025
-0.00553268
-0.00625454
-0.00739871
-0.00937382
-0.0122055
-0.0136103
-0.00915018
-0.00211343
0.00507692
-0.00389918
-0.00400498
-0.00404358
-0.00412881
-0.00425542
-0.00443583
-0.00468249
-0.00501031
-0.00544282
-0.00601901
-0.00680791
-0.00794011
-0.0096758
-0.0125329
-0.0176186
-0.0251081
-0.0318281
-0.0284372
-0.0189267
-0.00632236
-0.00452624
-0.00463306
-0.0046523
-0.00473676
-0.00488342
-0.00510908
-0.00543011
-0.00587068
-0.00646848
-0.00728677
-0.00843865
-0.0101326
-0.0128073
-0.0171775
-0.0248072
-0.0356093
-0.0466508
-0.0451644
-0.0356963
-0.0199354
-0.00521378
-0.00533158
-0.00531332
-0.00538162
-0.00551722
-0.00575078
-0.0061054
-0.00661145
-0.00731419
-0.00828711
-0.00966292
-0.0116585
-0.0148172
-0.0198003
-0.0282443
-0.0393569
-0.0515129
-0.0501745
-0.0423827
-0.0259163
-0.00604271
-0.00596596
-0.00583043
-0.0057978
-0.00589879
-0.00614116
-0.00653224
-0.00708983
-0.00785295
-0.0088881
-0.010326
-0.0123244
-0.0154332
-0.0201208
-0.0276706
-0.0368054
-0.0456043
-0.0441885
-0.0387052
-0.0197108
-0.00653082
-0.00695831
-0.00666397
-0.00667259
-0.00666492
-0.00679303
-0.00707208
-0.00753498
-0.00822065
-0.00917642
-0.010519
-0.0123307
-0.0150844
-0.0189131
-0.0247213
-0.0309102
-0.0365885
-0.033764
-0.0274004
-0.000306806
-0.00990922
-0.00739251
-0.00676058
-0.00618112
-0.00611394
-0.00630348
-0.00669197
-0.00724377
-0.0079793
-0.00891196
-0.0101683
-0.0117964
-0.0141354
-0.0171539
-0.0213886
-0.0250611
-0.0276817
-0.0221348
-0.00976123
0.0342483
-0.00660675
-0.00960793
-0.00854642
-0.00856808
-0.00812282
-0.00789779
-0.00785647
-0.00803239
-0.00847108
-0.00915549
-0.0101952
-0.0116025
-0.0137742
-0.0164808
-0.0206237
-0.0235581
-0.0246444
-0.0112817
0.0158683
0.0933955
-0.0318109
-0.00677686
-0.00527035
-0.004533
-0.00434419
-0.00457724
-0.00511179
-0.00575224
-0.00660445
-0.0075647
-0.00890284
-0.0104867
-0.0126654
-0.0149053
-0.0170374
-0.0154632
-0.00678335
0.0266619
0.0949788
0.227269
)
;

boundaryField
{
    movingWall
    {
        type            zeroGradient;
    }
    fixedWalls
    {
        type            zeroGradient;
    }
    frontAndBack
    {
        type            empty;
    }
}


// ************************************************************************* //
