/*--------------------------------*- C++ -*----------------------------------*\
  =========                 |
  \\      /  F ield         | OpenFOAM: The Open Source CFD Toolbox
   \\    /   O peration     | Website:  https://openfoam.org
    \\  /    A nd           | Version:  10
     \\/     M anipulation  |
\*---------------------------------------------------------------------------*/
FoamFile
{
    format      ascii;
    class       volScalarField;
    location    "0.425";
    object      p;
}
// * * * * * * * * * * * * * * * * * * * * * * * * * * * * * * * * * * * * * //

dimensions      [0 2 -2 0 0 0 0];

internalField   nonuniform List<scalar> 
475
(
0.00571832
-0.019465
-0.0859031
-0.111439
-0.179238
-0.00619857
-0.0341755
-0.0576088
-0.0751576
-0.0668248
0.000171896
-0.012322
-0.0392877
-0.0481035
-0.0355473
0.0106547
-0.00758029
-0.0287355
-0.0294379
-0.014889
0.0419383
0.00960002
-0.0171275
-0.0171073
-0.00297911
-0.230697
-0.159525
-0.0374436
0.0789081
0.135906
0.145226
0.139764
0.13335
0.128307
0.124245
0.120627
0.117166
0.113748
0.110332
0.106905
0.103464
0.10001
0.0965427
0.0930648
0.0895786
0.086086
0.082588
0.0790856
0.0755796
0.0720708
0.0685601
0.065048
0.061535
0.0580211
0.0545063
0.0509909
0.047475
0.0439588
0.0404425
0.0369262
0.0334098
0.0298933
0.0263766
0.0228599
0.0193428
0.0158259
0.0123092
0.008791
0.00527439
0.00175882
-0.0610184
-0.0328545
0.00907566
0.0484048
0.07884
0.100436
0.113224
0.119064
0.120514
0.119648
0.117662
0.115116
0.112267
0.109235
0.106082
0.102843
0.0995393
0.0961856
0.0927938
0.0893731
0.0859302
0.0824701
0.0789964
0.0755121
0.0720199
0.0685217
0.0650191
0.0615133
0.0580047
0.054494
0.0509816
0.047468
0.0439536
0.0404386
0.0369233
0.0334077
0.0298918
0.0263755
0.0228591
0.0193421
0.0158254
0.0123088
0.00879078
0.00527433
0.00175884
-0.0378823
-0.0281614
0.0230397
0.0696976
0.0973409
0.109306
0.114559
0.11688
0.117432
0.116798
0.115353
0.113339
0.110924
0.108226
0.105324
0.102273
0.0991093
0.0958612
0.0925491
0.0891885
0.0857909
0.0823649
0.0789169
0.0754522
0.0719747
0.0684878
0.0649938
0.0614942
0.0579903
0.0544832
0.0509734
0.0474619
0.043949
0.0404353
0.0369209
0.0334059
0.0298904
0.0263744
0.0228583
0.0193415
0.015825
0.0123085
0.00879065
0.00527433
0.00175885
0.00232286
0.0228256
0.044183
0.0671746
0.085328
0.0977738
0.106014
0.110965
0.113329
0.113885
0.113241
0.11179
0.109781
0.107378
0.104693
0.101802
0.0987567
0.095597
0.092351
0.0890398
0.0856792
0.0822808
0.0788537
0.0754048
0.0719393
0.0684613
0.0649739
0.0614792
0.0579791
0.0544747
0.0509671
0.0474572
0.0439456
0.0404328
0.036919
0.0334045
0.0298893
0.0263736
0.0228576
0.0193411
0.0158247
0.0123083
0.00879055
0.0052743
0.00175883
0.00867058
0.019804
0.0393884
0.0625572
0.0811336
0.0940134
0.102495
0.1078
0.110709
0.111836
0.111685
0.110626
0.108917
0.106739
0.10422
0.101451
0.0984967
0.0954039
0.0922075
0.088933
0.0855996
0.0822216
0.0788096
0.0753719
0.0719148
0.068443
0.0649602
0.0614691
0.0579715
0.0544691
0.050963
0.0474542
0.0439433
0.0404311
0.0369177
0.0334035
0.0298886
0.026373
0.0228572
0.0193408
0.0158245
0.0123082
0.00879062
0.00527428
0.00175867
0.00821344
0.0371555
0.0678215
0.10112
0.123687
0.135539
0.139832
0.139498
0.136638
0.132563
0.128005
0.123345
0.118759
0.114315
0.110029
0.105891
0.101883
0.0979805
0.0941643
0.0904162
0.0867219
0.0830698
0.0794502
0.0758554
0.0722791
0.0687169
0.0651657
0.0616231
0.058087
0.0545559
0.0510283
0.0475032
0.04398
0.0404583
0.0369378
0.0334182
0.0298995
0.0263812
0.0228633
0.0193454
0.0158279
0.0123105
0.00879206
0.00527473
0.00175866
0.0018545
0.0254943
0.0588047
0.0975194
0.122277
0.134656
0.138887
0.138411
0.135506
0.131491
0.12706
0.122551
0.118113
0.113802
0.109628
0.105582
0.101646
0.0978006
0.0940279
0.0903131
0.0866444
0.0830118
0.0794069
0.0758229
0.0722547
0.0686986
0.065152
0.061613
0.0580797
0.0545505
0.0510243
0.0475001
0.0439777
0.0404565
0.0369364
0.0334173
0.0298988
0.0263807
0.022863
0.0193451
0.0158277
0.0123104
0.00879181
0.00527468
0.00175882
-0.0972755
-0.0367873
0.0290728
0.0899119
0.121413
0.13494
0.138733
0.137671
0.134425
0.130316
0.125947
0.121575
0.117297
0.11314
0.109102
0.105171
0.101327
0.097555
0.0938398
0.0901699
0.0865359
0.0829298
0.0793449
0.0757761
0.0722193
0.068672
0.0651321
0.0615982
0.0580686
0.0545422
0.051018
0.0474954
0.0439741
0.0404538
0.0369345
0.0334159
0.0298978
0.0263799
0.0228624
0.0193447
0.0158274
0.0123102
0.00879166
0.00527463
0.00175882
-0.138407
-0.0872384
-0.00592085
0.0784437
0.120836
0.135758
0.138691
0.136761
0.133056
0.128834
0.124556
0.120365
0.116289
0.112324
0.108454
0.104662
0.100932
0.0972501
0.0936057
0.0899911
0.0863999
0.0828266
0.0792666
0.0757167
0.0721744
0.0686381
0.0651068
0.0615792
0.0580544
0.0545314
0.0510098
0.0474892
0.0439694
0.0404504
0.036932
0.0334141
0.0298965
0.026379
0.0228617
0.0193441
0.0158269
0.0123099
0.00879145
0.00527456
0.00175884
-0.361299
-0.168677
-0.0622911
0.0570468
0.118381
0.135156
0.137095
0.134568
0.130772
0.126734
0.122754
0.118877
0.115091
0.111374
0.10771
0.104083
0.100484
0.0969055
0.0933416
0.0897894
0.0862463
0.0827099
0.0791781
0.0756495
0.0721235
0.0685998
0.065078
0.0615576
0.0580381
0.0545192
0.0510006
0.0474822
0.0439642
0.0404465
0.0369292
0.033412
0.029895
0.0263779
0.0228608
0.0193434
0.0158264
0.0123095
0.0087912
0.00527449
0.00175886
)
;

boundaryField
{
    inlet
    {
        type            zeroGradient;
    }
    outlet
    {
        type            fixedValue;
        value           uniform 0;
    }
    upperWall
    {
        type            zeroGradient;
    }
    lowerWall
    {
        type            zeroGradient;
    }
    frontAndBack
    {
        type            empty;
    }
}


// ************************************************************************* //
