/*--------------------------------*- C++ -*----------------------------------*\
  =========                 |
  \\      /  F ield         | OpenFOAM: The Open Source CFD Toolbox
   \\    /   O peration     | Website:  https://openfoam.org
    \\  /    A nd           | Version:  10
     \\/     M anipulation  |
\*---------------------------------------------------------------------------*/
FoamFile
{
    format      ascii;
    class       volVectorField;
    location    "0.425";
    object      U;
}
// * * * * * * * * * * * * * * * * * * * * * * * * * * * * * * * * * * * * * //

dimensions      [0 1 -1 0 0 0 0];

internalField   nonuniform List<vector> 
475
(
(0.949942 0.0244714 0)
(1.01007 -0.0420221 0)
(0.929792 0.0915516 0)
(1.07489 -0.120689 0)
(0.994453 0.0113965 0)
(1.00958 -0.004164 0)
(0.979386 0.0228596 0)
(1.06266 -0.0287538 0)
(1.04601 -0.0639635 0)
(1.0424 -0.0420725 0)
(0.994981 0.00312219 0)
(0.989929 -0.0282327 0)
(1.04609 -0.0201903 0)
(1.03966 -0.0606957 0)
(1.0203 -0.0998515 0)
(0.996324 -0.0135368 0)
(0.994507 -0.025335 0)
(1.03422 -0.0385213 0)
(1.0312 -0.0571732 0)
(0.986421 -0.057746 0)
(0.975767 -0.0098052 0)
(0.957537 -0.0221112 0)
(0.963197 -0.0259667 0)
(0.915732 -0.0286538 0)
(0.851785 -0.0310253 0)
(1.10102 -0.244707 0)
(1.22026 -0.336954 0)
(1.14798 -0.365203 0)
(0.94687 -0.32438 0)
(0.771208 -0.245274 0)
(0.659678 -0.174085 0)
(0.594144 -0.124306 0)
(0.558476 -0.0902661 0)
(0.539963 -0.0659354 0)
(0.530247 -0.0481371 0)
(0.52491 -0.0350774 0)
(0.521799 -0.0255188 0)
(0.519879 -0.018543 0)
(0.51864 -0.013463 0)
(0.517815 -0.00976894 0)
(0.517251 -0.00708517 0)
(0.516862 -0.00513667 0)
(0.51659 -0.00372287 0)
(0.5164 -0.00269763 0)
(0.516264 -0.00195445 0)
(0.516168 -0.00141577 0)
(0.516098 -0.00102528 0)
(0.516048 -0.000742237 0)
(0.516012 -0.00053718 0)
(0.515987 -0.000388761 0)
(0.515969 -0.000281425 0)
(0.515956 -0.000203808 0)
(0.515946 -0.000147615 0)
(0.515939 -0.000106861 0)
(0.515933 -7.72825e-05 0)
(0.51593 -5.58435e-05 0)
(0.515927 -4.03379e-05 0)
(0.515926 -2.91421e-05 0)
(0.515925 -2.10859e-05 0)
(0.515924 -1.52802e-05 0)
(0.515923 -1.109e-05 0)
(0.515922 -8.05859e-06 0)
(0.515921 -5.87225e-06 0)
(0.515922 -4.31336e-06 0)
(0.515919 -3.20106e-06 0)
(0.515926 -2.45225e-06 0)
(0.515914 -1.93559e-06 0)
(0.515929 -1.56371e-06 0)
(0.515922 -1.68399e-06 0)
(0.515921 -1.59069e-06 0)
(1.04256 -0.26871 0)
(0.871925 -0.415751 0)
(0.710702 -0.312254 0)
(0.633963 -0.171049 0)
(0.60219 -0.109666 0)
(0.585689 -0.0915962 0)
(0.572804 -0.0798508 0)
(0.560966 -0.0661035 0)
(0.550297 -0.0520286 0)
(0.541343 -0.039619 0)
(0.53437 -0.0295976 0)
(0.529203 -0.0218726 0)
(0.525462 -0.01606 0)
(0.522776 -0.0117444 0)
(0.52085 -0.0085659 0)
(0.519468 -0.00623627 0)
(0.518476 -0.00453403 0)
(0.517764 -0.00329281 0)
(0.517253 -0.00238935 0)
(0.516883 -0.00173281 0)
(0.516616 -0.00125628 0)
(0.516422 -0.00091057 0)
(0.516282 -0.000659726 0)
(0.516182 -0.000477679 0)
(0.51611 -0.000345636 0)
(0.516057 -0.000250014 0)
(0.516019 -0.000180914 0)
(0.515991 -0.000131057 0)
(0.51597 -9.50547e-05 0)
(0.515956 -6.89506e-05 0)
(0.515945 -4.99208e-05 0)
(0.515938 -3.60139e-05 0)
(0.515933 -2.58842e-05 0)
(0.51593 -1.85559e-05 0)
(0.515927 -1.33247e-05 0)
(0.515924 -9.63915e-06 0)
(0.515922 -7.06079e-06 0)
(0.515921 -5.24018e-06 0)
(0.515921 -3.92697e-06 0)
(0.515917 -2.94537e-06 0)
(0.515924 -2.2551e-06 0)
(0.515913 -1.74862e-06 0)
(0.515927 -1.41483e-06 0)
(0.515919 -1.52229e-06 0)
(0.515919 -1.62689e-06 0)
(1.02036 -0.0984802 0)
(0.949125 -0.106277 0)
(0.820967 -0.146321 0)
(0.727955 -0.158964 0)
(0.678408 -0.135342 0)
(0.642814 -0.102066 0)
(0.610995 -0.0742472 0)
(0.585362 -0.0542582 0)
(0.566373 -0.0401285 0)
(0.552549 -0.0298349 0)
(0.542488 -0.022158 0)
(0.535174 -0.0163952 0)
(0.529862 -0.0120808 0)
(0.526004 -0.00886891 0)
(0.523203 -0.00649123 0)
(0.521172 -0.00473905 0)
(0.519699 -0.00345255 0)
(0.518633 -0.00251115 0)
(0.517861 -0.00182445 0)
(0.5173 -0.0013247 0)
(0.516894 -0.000961334 0)
(0.5166 -0.000697068 0)
(0.516387 -0.000504865 0)
(0.516233 -0.000365277 0)
(0.516122 -0.000264219 0)
(0.516041 -0.000191291 0)
(0.515982 -0.000138712 0)
(0.51594 -0.000100689 0)
(0.515909 -7.30252e-05 0)
(0.515886 -5.27892e-05 0)
(0.515871 -3.79885e-05 0)
(0.51586 -2.72574e-05 0)
(0.515851 -1.95865e-05 0)
(0.515845 -1.41601e-05 0)
(0.515841 -1.03283e-05 0)
(0.515837 -7.58952e-06 0)
(0.515835 -5.57876e-06 0)
(0.515832 -4.07062e-06 0)
(0.515832 -2.92215e-06 0)
(0.515828 -2.11524e-06 0)
(0.515835 -1.56988e-06 0)
(0.515823 -1.27161e-06 0)
(0.515838 -1.11077e-06 0)
(0.515829 -1.3458e-06 0)
(0.515829 -1.48421e-06 0)
(0.941183 -0.0886555 0)
(0.896921 -0.12357 0)
(0.831081 -0.113272 0)
(0.754547 -0.0822747 0)
(0.69255 -0.0585952 0)
(0.647443 -0.0452521 0)
(0.613725 -0.0360341 0)
(0.588133 -0.0283414 0)
(0.568785 -0.0219066 0)
(0.554195 -0.0166948 0)
(0.54325 -0.0125784 0)
(0.535104 -0.0093923 0)
(0.529083 -0.00696466 0)
(0.524654 -0.0051366 0)
(0.521407 -0.00377211 0)
(0.519035 -0.00276049 0)
(0.517305 -0.00201457 0)
(0.516046 -0.00146712 0)
(0.515131 -0.00106684 0)
(0.514466 -0.000774876 0)
(0.513983 -0.000562199 0)
(0.513633 -0.000407415 0)
(0.513379 -0.000294933 0)
(0.513196 -0.000213384 0)
(0.513063 -0.000154405 0)
(0.512966 -0.000111797 0)
(0.512896 -8.09788e-05 0)
(0.512845 -5.86171e-05 0)
(0.512809 -4.23429e-05 0)
(0.512782 -3.0509e-05 0)
(0.512763 -2.19573e-05 0)
(0.51275 -1.5824e-05 0)
(0.51274 -1.14375e-05 0)
(0.512733 -8.295e-06 0)
(0.512727 -6.03164e-06 0)
(0.512723 -4.38567e-06 0)
(0.51272 -3.1572e-06 0)
(0.512717 -2.29194e-06 0)
(0.512717 -1.60327e-06 0)
(0.512713 -1.29745e-06 0)
(0.51272 -8.84065e-07 0)
(0.512707 -8.29053e-07 0)
(0.512722 -8.54245e-07 0)
(0.512713 -8.54935e-07 0)
(0.512713 -1.25445e-06 0)
(0.806888 -0.02629 0)
(0.755703 -0.021834 0)
(0.688715 -0.022451 0)
(0.626695 -0.0211507 0)
(0.58076 -0.0177617 0)
(0.547288 -0.014126 0)
(0.521487 -0.0108912 0)
(0.501313 -0.00827331 0)
(0.48579 -0.00626868 0)
(0.47398 -0.00474274 0)
(0.465054 -0.00357141 0)
(0.458358 -0.00267246 0)
(0.453369 -0.00198731 0)
(0.449676 -0.00146956 0)
(0.446954 -0.00108147 0)
(0.444957 -0.000792618 0)
(0.443497 -0.000578926 0)
(0.442433 -0.000421689 0)
(0.441659 -0.000306529 0)
(0.441096 -0.000222477 0)
(0.440688 -0.000161262 0)
(0.440392 -0.000116737 0)
(0.440177 -8.43952e-05 0)
(0.440022 -6.0957e-05 0)
(0.43991 -4.40203e-05 0)
(0.439829 -3.1808e-05 0)
(0.439771 -2.29983e-05 0)
(0.439728 -1.66207e-05 0)
(0.439697 -1.19834e-05 0)
(0.439675 -8.60734e-06 0)
(0.43966 -6.16271e-06 0)
(0.439649 -4.41229e-06 0)
(0.43964 -3.17436e-06 0)
(0.439634 -2.31271e-06 0)
(0.43963 -1.70326e-06 0)
(0.439626 -1.25058e-06 0)
(0.439624 -8.98465e-07 0)
(0.439622 -6.68086e-07 0)
(0.439622 -4.38585e-07 0)
(0.439619 -3.99528e-07 0)
(0.439624 -1.72512e-07 0)
(0.439614 -2.23078e-07 0)
(0.439626 -3.15891e-07 0)
(0.439619 -2.86473e-07 0)
(0.439617 -6.65366e-07 0)
(-0.0195697 -0.0239563 0)
(0.0101261 -0.0300872 0)
(0.0925011 -0.032164 0)
(0.159715 -0.0330416 0)
(0.225891 -0.0292737 0)
(0.281774 -0.023537 0)
(0.325236 -0.0178754 0)
(0.3576 -0.0131233 0)
(0.381099 -0.00944898 0)
(0.397927 -0.00673437 0)
(0.409903 -0.00477874 0)
(0.41841 -0.0033885 0)
(0.424455 -0.00240558 0)
(0.428759 -0.00171079 0)
(0.43183 -0.00121886 0)
(0.434025 -0.000870215 0)
(0.435596 -0.000622855 0)
(0.436722 -0.000446781 0)
(0.437533 -0.000320788 0)
(0.438116 -0.00023029 0)
(0.438537 -0.00016534 0)
(0.438838 -0.000118904 0)
(0.439055 -8.57536e-05 0)
(0.439211 -6.19671e-05 0)
(0.439325 -4.47366e-05 0)
(0.439407 -3.21699e-05 0)
(0.439467 -2.30238e-05 0)
(0.43951 -1.6451e-05 0)
(0.43954 -1.18096e-05 0)
(0.439561 -8.55198e-06 0)
(0.439577 -6.23919e-06 0)
(0.439588 -4.55928e-06 0)
(0.439597 -3.30145e-06 0)
(0.439603 -2.34681e-06 0)
(0.439608 -1.65744e-06 0)
(0.439611 -1.18968e-06 0)
(0.439613 -8.9257e-07 0)
(0.439614 -6.62152e-07 0)
(0.439616 -5.57789e-07 0)
(0.439615 -3.40136e-07 0)
(0.43962 -3.60678e-07 0)
(0.439613 -1.71046e-07 0)
(0.439624 -4.28482e-09 0)
(0.439621 -2.76117e-08 0)
(0.439618 2.37706e-07 0)
(-0.0127912 0.0400814 0)
(0.0149459 -0.080624 0)
(0.108832 -0.103509 0)
(0.190236 -0.109663 0)
(0.271034 -0.0966301 0)
(0.336557 -0.0771234 0)
(0.385802 -0.058372 0)
(0.42173 -0.0428849 0)
(0.447568 -0.0309914 0)
(0.466039 -0.0222072 0)
(0.479229 -0.0158561 0)
(0.488654 -0.0113136 0)
(0.495401 -0.00807863 0)
(0.500243 -0.00577602 0)
(0.503722 -0.0041358 0)
(0.506225 -0.00296647 0)
(0.508027 -0.00213162 0)
(0.509326 -0.00153385 0)
(0.510265 -0.00110437 0)
(0.510945 -0.000795286 0)
(0.511435 -0.00057305 0)
(0.511789 -0.000413503 0)
(0.512043 -0.000298844 0)
(0.512228 -0.000216071 0)
(0.512362 -0.00015601 0)
(0.51246 -0.000112381 0)
(0.512531 -8.08513e-05 0)
(0.512582 -5.82655e-05 0)
(0.512618 -4.21894e-05 0)
(0.512644 -3.07054e-05 0)
(0.512662 -2.2384e-05 0)
(0.512676 -1.62481e-05 0)
(0.512687 -1.16631e-05 0)
(0.512694 -8.24783e-06 0)
(0.5127 -5.78742e-06 0)
(0.512704 -4.09413e-06 0)
(0.512706 -2.98635e-06 0)
(0.512708 -2.21927e-06 0)
(0.51271 -1.76448e-06 0)
(0.512708 -1.25439e-06 0)
(0.512716 -1.097e-06 0)
(0.512706 -7.26959e-07 0)
(0.51272 -4.0332e-07 0)
(0.512714 -4.47985e-07 0)
(0.512714 -1.64011e-07 0)
(-0.0884527 -0.0341211 0)
(-0.0716949 -0.184878 0)
(0.0970171 -0.210246 0)
(0.198352 -0.206231 0)
(0.293931 -0.174024 0)
(0.36289 -0.13439 0)
(0.409579 -0.0993792 0)
(0.441201 -0.0719679 0)
(0.462898 -0.0516126 0)
(0.478003 -0.0368759 0)
(0.488656 -0.026333 0)
(0.496243 -0.0188234 0)
(0.501684 -0.0134762 0)
(0.505603 -0.00966361 0)
(0.508431 -0.00694079 0)
(0.510473 -0.004993 0)
(0.51195 -0.00359663 0)
(0.51302 -0.00259302 0)
(0.513795 -0.0018703 0)
(0.514358 -0.00134964 0)
(0.514764 -0.000974707 0)
(0.515057 -0.000704627 0)
(0.515269 -0.000509649 0)
(0.515423 -0.000368459 0)
(0.515536 -0.000266078 0)
(0.515617 -0.000191998 0)
(0.515677 -0.00013865 0)
(0.515719 -0.000100379 0)
(0.515749 -7.2891e-05 0)
(0.51577 -5.30001e-05 0)
(0.515786 -3.84499e-05 0)
(0.515798 -2.77248e-05 0)
(0.515807 -1.98443e-05 0)
(0.515813 -1.4147e-05 0)
(0.515818 -1.01173e-05 0)
(0.515821 -7.30967e-06 0)
(0.515823 -5.36047e-06 0)
(0.515824 -3.97183e-06 0)
(0.515826 -2.98064e-06 0)
(0.515824 -2.19819e-06 0)
(0.515832 -1.68108e-06 0)
(0.515821 -1.24015e-06 0)
(0.515836 -9.23969e-07 0)
(0.51583 -9.5231e-07 0)
(0.515829 -9.23336e-07 0)
(0.0594915 0.25455 0)
(0.0442414 -0.237824 0)
(0.180133 -0.334036 0)
(0.262017 -0.32012 0)
(0.34996 -0.257182 0)
(0.411734 -0.188388 0)
(0.44836 -0.133672 0)
(0.470171 -0.0942802 0)
(0.483879 -0.0666397 0)
(0.492992 -0.0472951 0)
(0.49932 -0.0337051 0)
(0.503838 -0.0241049 0)
(0.507113 -0.0172867 0)
(0.5095 -0.0124233 0)
(0.511242 -0.00894319 0)
(0.512514 -0.00644692 0)
(0.513441 -0.00465233 0)
(0.514118 -0.0033594 0)
(0.514612 -0.00242655 0)
(0.514971 -0.00175325 0)
(0.515231 -0.00126745 0)
(0.51542 -0.000916873 0)
(0.515556 -0.000663532 0)
(0.515656 -0.000480059 0)
(0.515729 -0.000347012 0)
(0.515782 -0.00025063 0)
(0.51582 -0.000181041 0)
(0.515847 -0.000130993 0)
(0.515867 -9.5045e-05 0)
(0.51588 -6.91055e-05 0)
(0.515891 -5.01945e-05 0)
(0.515899 -3.62658e-05 0)
(0.515904 -2.60016e-05 0)
(0.515909 -1.85168e-05 0)
(0.515912 -1.3184e-05 0)
(0.515913 -9.47674e-06 0)
(0.515915 -6.9424e-06 0)
(0.515915 -5.19236e-06 0)
(0.515917 -3.96913e-06 0)
(0.515915 -3.02731e-06 0)
(0.515922 -2.34658e-06 0)
(0.515911 -1.76008e-06 0)
(0.515926 -1.31889e-06 0)
(0.51592 -1.23396e-06 0)
(0.515919 -1.2123e-06 0)
(0.404296 -0.196059 0)
(0.25994 -0.376417 0)
(0.450455 -0.481569 0)
(0.459485 -0.445775 0)
(0.479642 -0.339874 0)
(0.499057 -0.234909 0)
(0.506475 -0.157906 0)
(0.508871 -0.107101 0)
(0.510053 -0.0740315 0)
(0.511005 -0.0520401 0)
(0.511893 -0.0370063 0)
(0.51271 -0.0265016 0)
(0.513421 -0.0190578 0)
(0.514009 -0.0137386 0)
(0.514476 -0.00991893 0)
(0.514839 -0.00716781 0)
(0.515117 -0.0051826 0)
(0.515328 -0.00374843 0)
(0.515487 -0.00271177 0)
(0.515604 -0.00196224 0)
(0.515689 -0.00142014 0)
(0.51575 -0.00102785 0)
(0.515796 -0.000743788 0)
(0.51583 -0.00053806 0)
(0.515856 -0.000389158 0)
(0.515875 -0.000281522 0)
(0.515887 -0.000203799 0)
(0.515896 -0.000147652 0)
(0.515902 -0.000107007 0)
(0.515907 -7.75011e-05 0)
(0.51591 -5.60337e-05 0)
(0.515914 -4.04164e-05 0)
(0.515916 -2.90984e-05 0)
(0.515918 -2.09645e-05 0)
(0.515919 -1.51401e-05 0)
(0.515919 -1.09744e-05 0)
(0.515919 -7.99554e-06 0)
(0.515919 -5.86365e-06 0)
(0.51592 -4.33703e-06 0)
(0.515918 -3.22307e-06 0)
(0.515925 -2.45095e-06 0)
(0.515914 -1.90508e-06 0)
(0.515929 -1.50705e-06 0)
(0.515922 -1.57258e-06 0)
(0.515921 -1.48457e-06 0)
)
;

boundaryField
{
    inlet
    {
        type            fixedValue;
        value           uniform (1 0 0);
    }
    outlet
    {
        type            zeroGradient;
    }
    upperWall
    {
        type            noSlip;
    }
    lowerWall
    {
        type            noSlip;
    }
    frontAndBack
    {
        type            empty;
    }
}


// ************************************************************************* //
