/*--------------------------------*- C++ -*----------------------------------*\
  =========                 |
  \\      /  F ield         | OpenFOAM: The Open Source CFD Toolbox
   \\    /   O peration     | Website:  https://openfoam.org
    \\  /    A nd           | Version:  10
     \\/     M anipulation  |
\*---------------------------------------------------------------------------*/
FoamFile
{
    format      ascii;
    class       volScalarField;
    location    "5.95";
    object      p;
}
// * * * * * * * * * * * * * * * * * * * * * * * * * * * * * * * * * * * * * //

dimensions      [0 2 -2 0 0 0 0];

internalField   nonuniform List<scalar> 
8000
(
-2.88451e-06
-7.17105e-06
3.61448e-05
0.000114791
0.000234623
0.000397015
0.000603299
0.000854321
0.00115021
0.00148946
0.00186824
0.00227962
0.00271282
0.00315264
0.00357898
0.00396824
0.00429485
0.00453425
0.00468043
0.00469206
1.29843e-06
-3.91415e-06
4.08838e-05
0.000118884
0.000236799
0.000396285
0.000598974
0.000846111
0.00113802
0.0014735
0.00184912
0.00225834
0.00269039
0.00313058
0.00355957
0.00395308
0.00428477
0.00452903
0.00468077
0.00468997
-5.41959e-05
-6.2941e-05
-1.98078e-05
5.53582e-05
0.000169913
0.000325671
0.00052469
0.000768838
0.00105919
0.00139548
0.00177523
0.00219294
0.00263924
0.00309945
0.00355283
0.00397344
0.00433155
0.00459674
0.00476235
0.00476705
-0.000157504
-0.000168898
-0.000128173
-5.70604e-05
5.25051e-05
0.000202679
0.000396193
0.000635891
0.00092407
0.00126192
0.00164869
0.00208055
0.00254924
0.00304085
0.00353482
0.00400178
0.00440645
0.00470961
0.00490072
0.00490295
-0.000314459
-0.000328652
-0.000291417
-0.000225851
-0.000123104
1.94183e-05
0.000205291
0.000438568
0.00072319
0.00106242
0.00145793
0.00190858
0.00240856
0.00294522
0.00349734
0.00403253
0.00450781
0.00487092
0.00510345
0.00510476
-0.00052584
-0.000543309
-0.000510748
-0.000452558
-0.000359079
-0.00022727
-5.26296e-05
0.000170275
0.000447338
0.000784455
0.00118665
0.00165662
0.00219264
0.00278508
0.00341255
0.00404165
0.00461886
0.00507302
0.00537067
0.0053747
-0.000791774
-0.000813205
-0.000786662
-0.000738102
-0.000657118
-0.000540329
-0.000382368
-0.000176404
8.55715e-05
0.000412505
0.000813599
0.00129687
0.0018666
0.00251931
0.00323868
0.00398812
0.00470618
0.00529682
0.00569704
0.0057155
-0.00111212
-0.00113832
-0.00111924
-0.00108292
-0.00101837
-0.000922151
-0.00078831
-0.000608858
-0.000373805
-7.10665e-05
0.000313257
0.000793889
0.00138386
0.00208968
0.00290663
0.00379892
0.00470404
0.00549715
0.0060616
0.00613025
-0.00148655
-0.00151829
-0.00150799
-0.00148655
-0.00144275
-0.00137358
-0.00127308
-0.00113272
-0.000941163
-0.000683731
-0.000342027
0.000105952
0.000684548
0.00141604
0.00230881
0.00334639
0.00448406
0.00556999
0.00640001
0.00661437
-0.00191475
-0.00195268
-0.00195185
-0.0019474
-0.00192836
-0.00189288
-0.00183594
-0.00174956
-0.00162245
-0.00143896
-0.00117793
-0.000811623
-0.000305085
0.000382779
0.00129221
0.00244801
0.00379865
0.0052797
0.00653815
0.0071229
-0.00239714
-0.00244145
-0.0024494
-0.00246255
-0.00247089
-0.00247474
-0.0024712
-0.00245438
-0.00241512
-0.0023399
-0.00220919
-0.00199494
-0.00165754
-0.00114337
-0.000381774
0.000715098
0.00221929
0.00408995
0.00602423
0.00746202
-0.00293615
-0.00298597
-0.00299944
-0.00302792
-0.00306328
-0.00310927
-0.00316646
-0.00323285
-0.0033041
-0.00337277
-0.00342738
-0.00344992
-0.00341301
-0.00327248
-0.00295766
-0.00234095
-0.0011618
0.000941548
0.00367141
0.00691727
-0.00353937
-0.00359162
-0.00360286
-0.00363953
-0.00369625
-0.00378192
-0.00390178
-0.00405931
-0.00425783
-0.00450085
-0.00479313
-0.00514014
-0.00554912
-0.00602284
-0.00654895
-0.00700457
-0.00696276
-0.00502216
-0.000718818
0.00545796
-0.00422119
-0.00426399
-0.00425518
-0.0042845
-0.00435089
-0.00446835
-0.00464563
-0.00489256
-0.00522187
-0.00565113
-0.00620801
-0.00693331
-0.00789474
-0.00917256
-0.0108468
-0.0126789
-0.0138917
-0.0112744
-0.0048637
0.00376568
-0.00502058
-0.00504947
-0.00500405
-0.00500936
-0.00506042
-0.00518213
-0.00539078
-0.00570373
-0.00614389
-0.00674325
-0.00755437
-0.00864875
-0.0101653
-0.012223
-0.0150011
-0.0179542
-0.0205183
-0.0178408
-0.011185
0.000721553
-0.00610164
-0.00590446
-0.00573265
-0.00562809
-0.00563306
-0.00575541
-0.00599999
-0.00637696
-0.00691161
-0.00764152
-0.00864405
-0.0100047
-0.0119455
-0.0145738
-0.0182372
-0.0221901
-0.0273825
-0.0269114
-0.021367
-0.00300547
-0.00704564
-0.00715872
-0.00685286
-0.00672929
-0.00662269
-0.00663527
-0.00678758
-0.0071039
-0.00762096
-0.00837176
-0.00944602
-0.0109247
-0.0130828
-0.0159617
-0.0203058
-0.0249415
-0.0332604
-0.0335587
-0.0274177
0.000457122
-0.0109348
-0.00811511
-0.00748589
-0.00680375
-0.00657087
-0.00658423
-0.006805
-0.00719252
-0.00779023
-0.00859042
-0.00971677
-0.0112114
-0.0133811
-0.0161957
-0.0204315
-0.0248394
-0.0319104
-0.0302555
-0.0209055
0.0204556
-0.01061
-0.0115079
-0.0100586
-0.00957715
-0.00885545
-0.00839886
-0.00818763
-0.00821797
-0.00856456
-0.009167
-0.0101416
-0.0114758
-0.0135173
-0.0160636
-0.0200004
-0.023393
-0.0282085
-0.0201867
-0.00128694
0.0655229
-0.0351933
-0.00980227
-0.00819034
-0.00674621
-0.00600437
-0.00590122
-0.00617143
-0.00659787
-0.00726332
-0.00807445
-0.00930529
-0.0107379
-0.0129013
-0.0150793
-0.0178087
-0.0176535
-0.013939
0.010499
0.0582871
0.1679
1.84585e-06
-1.32927e-05
2.79942e-05
0.000105704
0.000225729
0.000388856
0.000596259
0.000849061
0.00114729
0.00148952
0.00187205
0.00228804
0.00272665
0.00317238
0.00360519
0.00400071
0.00433205
0.00457247
0.00471624
0.0047119
1.58602e-05
6.69519e-07
4.50833e-05
0.000122459
0.000240227
0.000399686
0.000602407
0.000849713
0.001142
0.00147818
0.001855
0.00226605
0.00270056
0.00314448
0.00357742
0.00397497
0.00430964
0.00455411
0.00470435
0.00469607
-3.59939e-05
-5.65783e-05
-1.36547e-05
6.09011e-05
0.00017525
0.000330861
0.000529744
0.000773855
0.00106439
0.00140121
0.00178206
0.00220158
0.00265076
0.00311482
0.00357287
0.00399846
0.00436041
0.00462607
0.00478998
0.00477322
-0.000136362
-0.000160737
-0.000120104
-4.96245e-05
5.9714e-05
0.000209706
0.000403049
0.000642635
0.000930904
0.00126925
0.00165716
0.00209101
0.00256274
0.00305963
0.00355958
0.00403306
0.00444288
0.00474687
0.00493599
0.00491256
-0.000291389
-0.000319445
-0.000282227
-0.000217261
-0.000114677
2.7747e-05
0.000213571
0.000446922
0.000731875
0.00107194
0.00146912
0.00192255
0.00242628
0.00297008
0.0035306
0.00407501
0.00455793
0.00492306
0.00515319
0.00512335
-0.000501156
-0.00053333
-0.000500707
-0.000443032
-0.000349594
-0.000217721
-4.29033e-05
0.000180406
0.000458263
0.000796847
0.00120162
0.00167585
0.00221881
0.00281893
0.00345912
0.00410192
0.00469129
0.00515043
0.00544578
0.00541135
-0.000765388
-0.000802446
-0.000775744
-0.000727602
-0.000646522
-0.000529483
-0.000371081
-0.000164316
9.90393e-05
0.000428283
0.000833158
0.00132246
0.0019012
0.00256588
0.00330354
0.00407534
0.00481463
0.00541717
0.00581772
0.00578973
-0.00108382
-0.00112676
-0.00110741
-0.00107143
-0.00100665
-0.000910006
-0.000775465
-0.000594812
-0.000357758
-5.1758e-05
0.000337803
0.000826725
0.00142914
0.00215112
0.00299676
0.00392743
0.00487132
0.00569343
0.00626864
0.00628836
-0.00145601
-0.00150594
-0.00149526
-0.00147413
-0.00143001
-0.00136028
-0.00125886
-0.00111696
-0.000922836
-0.000661198
-0.000312657
0.000146448
0.000743212
0.00150495
0.00243582
0.00353798
0.00474564
0.00590231
0.00678026
0.00698015
-0.00188157
-0.00193952
-0.00193825
-0.00193414
-0.0019148
-0.00187875
-0.0018208
-0.00173265
-0.00160255
-0.001414
-0.00114449
-0.000763985
-0.00023337
0.000494344
0.00146381
0.00270325
0.00419979
0.00584403
0.00727711
0.00802716
-0.00236061
-0.00242737
-0.00243488
-0.00244856
-0.00245679
-0.00246025
-0.0024558
-0.00243722
-0.00239484
-0.00231412
-0.00217379
-0.00194296
-0.00157728
-0.00101517
-0.000177454
0.00103059
0.00271137
0.00496787
0.00737048
0.00943698
-0.00289491
-0.00297045
-0.00298347
-0.0030129
-0.00304867
-0.00309481
-0.00315154
-0.00321649
-0.00328483
-0.00334818
-0.00339294
-0.00339847
-0.00333375
-0.00315145
-0.00278253
-0.00210013
-0.000762813
0.00168629
0.00518819
0.00981779
-0.00349105
-0.00357449
-0.0035858
-0.00362445
-0.00368232
-0.00376864
-0.00388848
-0.0040452
-0.00424147
-0.00448031
-0.00476466
-0.00509882
-0.00549174
-0.00596437
-0.00656545
-0.00727674
-0.00758712
-0.00570705
-0.00124544
0.00686238
-0.00415766
-0.00423742
-0.00422754
-0.00426
-0.00433022
-0.00445137
-0.00463139
-0.00487934
-0.00520772
-0.00563409
-0.00618545
-0.00690557
-0.00787546
-0.00923592
-0.011239
-0.013947
-0.0167453
-0.0156992
-0.0104687
0.00074684
-0.0049338
-0.00502315
-0.00497822
-0.00499185
-0.00504772
-0.00517293
-0.00538356
-0.00569701
-0.00613552
-0.00673126
-0.00753753
-0.0086352
-0.0101833
-0.0124137
-0.0157699
-0.0202401
-0.0257634
-0.026212
-0.0220664
-0.00753203
-0.005944
-0.00581481
-0.00565184
-0.00555993
-0.00558077
-0.00571761
-0.0059734
-0.00635761
-0.00689373
-0.00762074
-0.00861176
-0.00997011
-0.0119367
-0.0147348
-0.0190856
-0.0247806
-0.0334404
-0.036396
-0.034908
-0.0137819
-0.00670293
-0.00704179
-0.00674401
-0.00667841
-0.00659364
-0.00662275
-0.00678477
-0.00710633
-0.00761715
-0.00835151
-0.00939564
-0.0108333
-0.0129924
-0.0159086
-0.0208498
-0.02678
-0.037381
-0.040767
-0.0397825
-0.00680916
-0.0104072
-0.00776043
-0.00716718
-0.00653442
-0.00639229
-0.00647519
-0.00674843
-0.00717599
-0.00776751
-0.00854236
-0.00962956
-0.0110049
-0.0131126
-0.0159136
-0.0204174
-0.0256439
-0.0337068
-0.0348497
-0.0280559
0.0205196
-0.00789862
-0.010495
-0.00943937
-0.00933275
-0.00879646
-0.00845097
-0.00830186
-0.0083728
-0.00867777
-0.00922354
-0.0101006
-0.0113069
-0.0132213
-0.0156939
-0.0199237
-0.0240122
-0.0298081
-0.0230359
-0.00206036
0.0740053
-0.0329211
-0.00791423
-0.00658885
-0.00570709
-0.00532583
-0.00539736
-0.00580241
-0.00630614
-0.00702147
-0.00782574
-0.00903221
-0.0103915
-0.0124991
-0.0147152
-0.0175329
-0.0177734
-0.0137142
0.0125211
0.072275
0.199323
1.14674e-05
-8.4543e-06
3.1733e-05
0.000108814
0.00022905
0.000392982
0.000601741
0.000856415
0.00115724
0.00150296
0.00189
0.00231161
0.00275696
0.00321042
0.00365122
0.00405419
0.00439111
0.00463358
0.00477614
0.00476228
3.15565e-05
1.10441e-05
5.50332e-05
0.000131817
0.000249485
0.00040918
0.000612504
0.000860884
0.00115486
0.00149353
0.00187378
0.00228931
0.00272953
0.00317999
0.00362004
0.00402444
0.0043644
0.00461097
0.00476073
0.00474335
-1.67867e-05
-4.36014e-05
-1.01951e-06
7.28313e-05
0.000186944
0.00034262
0.000541927
0.000786967
0.00107911
0.00141846
0.00180296
0.00222745
0.00268311
0.00315488
0.00362153
0.00405567
0.00442453
0.00469321
0.00485683
0.00482878
-0.000113744
-0.000144965
-0.000104588
-3.48536e-05
7.41816e-05
0.000224148
0.000417831
0.00065833
0.000948319
0.00128947
0.00168157
0.00212132
0.00260109
0.00310773
0.00361899
0.00410413
0.00452364
0.00483231
0.00502163
0.00498422
-0.000265807
-0.000301266
-0.000264229
-0.000200001
-9.76845e-05
4.47809e-05
0.000231076
0.000465575
0.000752666
0.00109623
0.0014987
0.00195971
0.0024741
0.00303076
0.00360704
0.00416832
0.00466601
0.00503904
0.00527037
0.00522236
-0.000472617
-0.000512783
-0.000480246
-0.000423259
-0.000329987
-0.000197913
-2.23627e-05
0.00020251
0.000483153
0.000826248
0.00123787
0.00172191
0.00227746
0.00289711
0.00356024
0.00422841
0.0048412
0.00531443
0.00561311
0.0055536
-0.000733549
-0.000779287
-0.000752559
-0.000705044
-0.00062402
-0.000506605
-0.000347174
-0.00013836
0.000128562
0.000463566
0.000877326
0.00137973
0.00197729
0.0026675
0.00343801
0.00424861
0.00502604
0.0056549
0.00606412
0.00599948
-0.00104809
-0.00110053
-0.00108105
-0.00104567
-0.00098091
-0.000883786
-0.000747989
-0.000564849
-0.000323454
-1.03572e-05
0.000390354
0.000896313
0.00152403
0.00228245
0.00317339
0.00416282
0.00516922
0.00604133
0.00663916
0.00660451
-0.00141554
-0.00147593
-0.00146506
-0.00144461
-0.00140061
-0.00133049
-0.00122779
-0.00108318
-0.000884169
-0.000614358
-0.000252717
0.000226756
0.000853424
0.0016527
0.00265709
0.00384756
0.00515614
0.00640855
0.00734243
0.00746962
-0.00183512
-0.0019047
-0.00190324
-0.00190007
-0.00188119
-0.00184513
-0.00178624
-0.0016956
-0.00156059
-0.00136345
-0.00107965
-0.000675919
-0.000107859
0.000680433
0.00172145
0.00307626
0.00472707
0.00655109
0.00810842
0.00877009
-0.00230637
-0.00238618
-0.0023936
-0.00240874
-0.00241812
-0.00242238
-0.00241785
-0.00239766
-0.00235122
-0.00226275
-0.002109
-0.00185586
-0.00145365
-0.000834147
8.4885e-05
0.0013903
0.00325942
0.00580852
0.00845257
0.0103329
-0.00283002
-0.00292031
-0.00293337
-0.00296513
-0.00300327
-0.00305166
-0.00310989
-0.00317496
-0.00324124
-0.0032993
-0.00333429
-0.00332386
-0.00323513
-0.00302146
-0.00262559
-0.00193882
-0.000627547
0.00209245
0.00593317
0.0104419
-0.00341112
-0.00351192
-0.00352403
-0.00356652
-0.00362846
-0.00371889
-0.00384235
-0.00400175
-0.00419925
-0.00443733
-0.00471923
-0.00505111
-0.0054485
-0.00595837
-0.0066976
-0.00772625
-0.00839166
-0.00645692
-0.00164068
0.00627188
-0.00405366
-0.0041531
-0.00414436
-0.00418274
-0.0042602
-0.00438906
-0.00457645
-0.0048309
-0.00516483
-0.00559606
-0.00615369
-0.0068891
-0.00790222
-0.00939206
-0.0117457
-0.0151359
-0.018815
-0.0183148
-0.0132109
-0.00202166
-0.00479553
-0.00491163
-0.00486867
-0.00489291
-0.00495978
-0.00509638
-0.00531781
-0.00564138
-0.00608951
-0.00669523
-0.00751375
-0.00863798
-0.0102524
-0.012666
-0.0164833
-0.0218271
-0.0287776
-0.0302155
-0.0263275
-0.0117515
-0.00574494
-0.00564602
-0.00548812
-0.00541052
-0.00544959
-0.00560539
-0.00587926
-0.0062798
-0.00683031
-0.00757083
-0.00857273
-0.0099511
-0.0119595
-0.0149065
-0.0196696
-0.0259912
-0.0353111
-0.0386122
-0.0363681
-0.0163832
-0.0063737
-0.00677367
-0.00649175
-0.00646359
-0.0064076
-0.00646515
-0.00665214
-0.00699539
-0.00752376
-0.00827382
-0.00932051
-0.0107579
-0.0129005
-0.0158731
-0.0210118
-0.0272217
-0.0367892
-0.03979
-0.036313
-0.00654708
-0.0100409
-0.00742772
-0.00679982
-0.00618049
-0.00608077
-0.00621547
-0.00653498
-0.00699649
-0.00761595
-0.00841529
-0.00949054
-0.010871
-0.012916
-0.0157108
-0.0201656
-0.0253327
-0.031945
-0.0318851
-0.0223858
0.0228349
-0.00681662
-0.00968076
-0.00874633
-0.00875839
-0.00830827
-0.00804296
-0.00795551
-0.00807312
-0.00842586
-0.00899729
-0.00988058
-0.0110782
-0.0129543
-0.0154668
-0.0196962
-0.0238619
-0.0286353
-0.0204162
0.00330769
0.0785327
-0.0322171
-0.00710928
-0.00577274
-0.0050109
-0.00474904
-0.00490302
-0.00536632
-0.00592651
-0.00666921
-0.0075089
-0.00870074
-0.0100691
-0.0121297
-0.0143794
-0.0170908
-0.0171645
-0.01188
0.0162386
0.0806506
0.209703
2.22778e-05
-3.56127e-07
3.91633e-05
0.00011587
0.000236418
0.00040124
0.000611483
0.000868342
0.00117219
0.00152189
0.00191401
0.00234184
0.00279452
0.00325617
0.0037055
0.00411649
0.00445974
0.0047055
0.00484858
0.0048296
4.57444e-05
2.23817e-05
6.60418e-05
0.000142488
0.000260322
0.000420617
0.000625033
0.000875127
0.00117159
0.00151369
0.00189845
0.00231969
0.00276689
0.00322527
0.00367375
0.00408626
0.00443276
0.00468292
0.00483368
0.00481123
-8.13509e-08
-3.02038e-05
1.20944e-05
8.5563e-05
0.000199787
0.000355997
0.000556344
0.000803082
0.00109778
0.00144074
0.00183015
0.00226105
0.0027247
0.00320578
0.00368262
0.00412684
0.00450411
0.00477764
0.0049428
0.00490835
-9.43097e-05
-0.000129168
-8.90224e-05
-1.96887e-05
8.94443e-05
0.000239939
0.000434694
0.000677008
0.000969797
0.00131503
0.00171282
0.00216016
0.00264976
0.00316824
0.00369286
0.00419166
0.00462297
0.00493883
0.00513085
0.00508521
-0.000243782
-0.00028317
-0.000246319
-0.000182479
-8.00126e-05
6.30781e-05
0.000250626
0.000487256
0.000777676
0.00112617
0.00153564
0.00200621
0.00253324
0.00310561
0.00370028
0.0042811
0.00479653
0.00518111
0.00541734
0.00535804
-0.000447895
-0.000492287
-0.000459884
-0.000403249
-0.000309738
-0.000176884
1.8578e-07
0.000227633
0.000512324
0.000861482
0.00128184
0.00177802
0.00234991
0.00299116
0.00368029
0.00437725
0.00501762
0.00551024
0.00581814
0.00574194
-0.000705788
-0.000756088
-0.000729441
-0.000682254
-0.000600915
-0.000482576
-0.00032136
-0.000109506
0.000162249
0.000504611
0.000929199
0.00144694
0.00206431
0.00278519
0.00359245
0.00444585
0.0052669
0.00592962
0.00635675
0.00626582
-0.00101673
-0.00107414
-0.00105472
-0.00101969
-0.000954612
-0.000856513
-0.000718771
-0.00053224
-0.000285339
3.63299e-05
0.000450051
0.000975368
0.00163196
0.00242724
0.00336814
0.00442022
0.00549553
0.00642771
0.00706229
0.00698482
-0.0013798
-0.00144564
-0.00143484
-0.00141488
-0.0013707
-0.00129973
-0.00119517
-0.0010471
-0.000842282
-0.000563157
-0.000187032
0.000314509
0.000974153
0.00182218
0.0028906
0.00416929
0.00558426
0.00694413
0.00795429
0.00801667
-0.00179384
-0.00186946
-0.00186817
-0.00186579
-0.00184709
-0.0018106
-0.00175028
-0.00165662
-0.00151617
-0.00130995
-0.00101158
-0.000584958
1.82236e-05
0.000856525
0.00197692
0.00344081
0.00524218
0.0072522
0.00895487
0.00952623
-0.00225784
-0.00234443
-0.00235225
-0.00236868
-0.0023789
-0.00238353
-0.00237851
-0.00235639
-0.00230588
-0.00221007
-0.00204416
-0.00177157
-0.00133882
-0.000673032
0.000310835
0.00170918
0.00373813
0.00655836
0.00946804
0.0112638
-0.00277164
-0.00286961
-0.00288339
-0.00291725
-0.0029573
-0.00300735
-0.00306661
-0.00313165
-0.00319633
-0.00325061
-0.00327903
-0.00325885
-0.00315749
-0.0029315
-0.00253675
-0.00188339
-0.00060183
0.00236574
0.00660578
0.0111974
-0.00333888
-0.00344879
-0.00346236
-0.00350827
-0.00357359
-0.00366737
-0.00379386
-0.00395578
-0.00415523
-0.00439494
-0.00467937
-0.00501821
-0.00543604
-0.00600544
-0.00690414
-0.00824691
-0.0093661
-0.00745583
-0.00237026
0.00589508
-0.0039604
-0.00407049
-0.00406391
-0.00410739
-0.0041905
-0.00432537
-0.00451869
-0.00477887
-0.00511871
-0.00555727
-0.00612703
-0.00688821
-0.00796172
-0.0095934
-0.0122928
-0.0163493
-0.0211243
-0.0211083
-0.0161009
-0.00422712
-0.00467263
-0.00480325
-0.00476381
-0.0047968
-0.00487229
-0.00501771
-0.00524772
-0.00557974
-0.00603678
-0.00665355
-0.00748918
-0.00864865
-0.0103412
-0.0129364
-0.0171797
-0.0232968
-0.0314447
-0.0336271
-0.0302658
-0.0149315
-0.00557333
-0.00549193
-0.00534007
-0.00527402
-0.00532567
-0.00549493
-0.00578213
-0.00619525
-0.00675754
-0.00751042
-0.00852486
-0.00992883
-0.0119936
-0.0150756
-0.0201906
-0.0270288
-0.0369169
-0.0403045
-0.0389892
-0.0182881
-0.00612015
-0.00656047
-0.00628434
-0.00628202
-0.00624529
-0.0063217
-0.00652533
-0.00688308
-0.00742304
-0.00818037
-0.00922913
-0.0106706
-0.0128257
-0.0158551
-0.0211356
-0.0275703
-0.036686
-0.0393891
-0.0367914
-0.00597467
-0.00970977
-0.00713465
-0.00650512
-0.00590669
-0.00583043
-0.00599303
-0.00633967
-0.00682494
-0.00746337
-0.00827032
-0.00933958
-0.0107085
-0.0127333
-0.0155234
-0.0199618
-0.0250422
-0.0310784
-0.0304737
-0.0218114
0.0254443
-0.00623088
-0.00925862
-0.00833878
-0.00841284
-0.00799588
-0.00776434
-0.00770505
-0.00784712
-0.00821811
-0.00880278
-0.00967748
-0.0108536
-0.0127173
-0.0152345
-0.0195136
-0.0236898
-0.0281616
-0.0192639
0.00440715
0.0826796
-0.0316466
-0.00653443
-0.00520036
-0.00449478
-0.00429587
-0.00450437
-0.00501167
-0.00561191
-0.00638113
-0.00724189
-0.00843845
-0.00980154
-0.0118492
-0.014084
-0.0167441
-0.0166398
-0.0109182
0.0184697
0.083885
0.216705
3.35902e-05
1.00331e-05
4.93862e-05
0.000126105
0.000247148
0.000412963
0.000624781
0.000883915
0.00119088
0.00154468
0.00194199
0.00237619
0.00283631
0.00330624
0.00376418
0.00418335
0.00453334
0.00478333
0.0049282
0.00490692
5.84976e-05
3.4055e-05
7.76439e-05
0.000154104
0.000272388
0.000433584
0.000639453
0.000891681
0.00119111
0.00153717
0.00192704
0.00235458
0.00280933
0.0032762
0.00373363
0.00415476
0.00450848
0.0047633
0.00491625
0.00489169
1.43066e-05
-1.707e-05
2.51789e-05
9.86475e-05
0.000213315
0.000370431
0.000572264
0.000821228
0.00111908
0.00146635
0.00186139
0.00229944
0.00277179
0.00326287
0.00375053
0.00420545
0.00459194
0.00487155
0.00503965
0.00500235
-7.7899e-05
-0.000114139
-7.40121e-05
-4.67418e-06
0.000104926
0.000256379
0.00045273
0.000697477
0.000993787
0.00134392
0.00174828
0.00220413
0.00270444
0.00323559
0.00377433
0.00428754
0.0047316
0.0050562
0.00525261
0.00520288
-0.000225213
-0.000266101
-0.000229236
-0.000165369
-6.23713e-05
8.17964e-05
0.00027115
0.000510572
0.000805098
0.00115941
0.00157686
0.00205803
0.0025987
0.00318773
0.00380162
0.0044028
0.00493706
0.00533497
0.00557821
0.00551237
-0.000426939
-0.000472949
-0.000440502
-0.00038381
-0.000289687
-0.000155607
2.35315e-05
0.000254216
0.000543738
0.000899866
0.00132999
0.00183944
0.00242889
0.00309245
0.00380824
0.00453462
0.00520353
0.00571745
0.00603712
0.0059494
-0.000682089
-0.000734138
-0.000707429
-0.000660175
-0.00057817
-0.000458485
-0.000294964
-7.94441e-05
0.000197884
0.000548452
0.000984816
0.00151907
0.00215911
0.00290919
0.00375312
0.00464917
0.00551406
0.00621199
0.00665984
0.00654729
-0.000989778
-0.00104909
-0.00102962
-0.000994575
-0.000928853
-0.000829391
-0.000689237
-0.000498767
-0.000245738
8.51718e-05
0.000512516
0.00105743
0.00174115
0.00257446
0.00356469
0.00467757
0.00581998
0.00681151
0.00748481
0.00736546
-0.00134885
-0.00141679
-0.00140602
-0.00138618
-0.00134153
-0.00126937
-0.00116253
-0.00101059
-0.000799527
-0.000510724
-0.000119949
0.000403366
0.00109473
0.00198817
0.00311831
0.00447942
0.00599451
0.00745591
0.0085406
0.00852529
-0.00175787
-0.00183582
-0.00183471
-0.00183274
-0.00181393
-0.00177669
-0.00171461
-0.00161766
-0.00147162
-0.00125643
-0.000944102
-0.000496145
0.000139115
0.00102403
0.00221406
0.00377663
0.00571436
0.00789413
0.00973279
0.0101704
-0.00221532
-0.00230453
-0.00231279
-0.00233013
-0.00234085
-0.00234551
-0.00233971
-0.00231555
-0.00226112
-0.00215868
-0.00198221
-0.00169333
-0.00123576
-0.000532991
0.000503469
0.00197936
0.0041463
0.007206
0.0103533
0.011993
-0.00272033
-0.00282127
-0.00283589
-0.00287136
-0.00291283
-0.00296408
-0.00302404
-0.00308902
-0.00315256
-0.00320436
-0.00322887
-0.00320368
-0.00309757
-0.00287149
-0.00249448
-0.00189149
-0.000649424
0.00253626
0.00716483
0.011702
-0.00327552
-0.00338898
-0.00340403
-0.00345258
-0.00352055
-0.00361701
-0.00374608
-0.00391047
-0.00411247
-0.0043555
-0.00464582
-0.00499734
-0.00544442
-0.00608286
-0.0071509
-0.00883894
-0.0103822
-0.00837089
-0.00287925
0.00565861
-0.0038799
-0.00399417
-0.00398974
-0.00403709
-0.00412439
-0.00426383
-0.004462
-0.00472745
-0.00507364
-0.00552132
-0.00610695
-0.00689982
-0.00804109
-0.00981817
-0.0128544
-0.0175475
-0.0232858
-0.0234046
-0.0180042
-0.00549781
-0.00456924
-0.00470544
-0.00466898
-0.00470802
-0.00478962
-0.00494158
-0.00517843
-0.00551794
-0.00598397
-0.00661329
-0.0074707
-0.00867115
-0.0104507
-0.0132275
-0.0178887
-0.0247133
-0.0338889
-0.0361776
-0.0323238
-0.0165197
-0.00543525
-0.00536104
-0.00521385
-0.00515572
-0.00521533
-0.00539335
-0.00568978
-0.00611252
-0.00668507
-0.00744889
-0.00848443
-0.00992125
-0.0120575
-0.0152749
-0.0207285
-0.0280345
-0.0384181
-0.0413389
-0.0391959
-0.0188362
-0.00594209
-0.00639674
-0.00612045
-0.00613162
-0.00610508
-0.00619223
-0.00640589
-0.00677315
-0.00732234
-0.00808873
-0.00914842
-0.0106042
-0.0127966
-0.0158781
-0.0213279
-0.0279451
-0.0367895
-0.0387928
-0.0349254
-0.00519304
-0.00946353
-0.00691285
-0.00628949
-0.00570568
-0.00563888
-0.00581382
-0.00617316
-0.00667056
-0.00731971
-0.00813418
-0.00920792
-0.0105776
-0.0126048
-0.0153998
-0.0198481
-0.0248376
-0.0304535
-0.0290811
-0.0191265
0.0272509
-0.00597097
-0.00903377
-0.00809473
-0.00818494
-0.00777323
-0.00755167
-0.00750209
-0.00765301
-0.00803366
-0.00862464
-0.00950298
-0.0106774
-0.0125485
-0.0150707
-0.0193965
-0.0235384
-0.0276982
-0.0179627
0.00679039
0.08524
-0.0313478
-0.00623307
-0.0048888
-0.00419051
-0.00400966
-0.00423844
-0.00476455
-0.0053819
-0.00616488
-0.00703603
-0.00824008
-0.00960317
-0.011654
-0.0138833
-0.0165073
-0.016268
-0.0101209
0.0200373
0.0866091
0.220157
4.43177e-05
2.04932e-05
5.99022e-05
0.000136863
0.00025854
0.000425445
0.000638908
0.000900363
0.00121045
0.00156832
0.00197073
0.0024111
0.00287841
0.00335627
0.00382247
0.00424953
0.00460619
0.00486074
0.00500796
0.00498561
6.9835e-05
4.50574e-05
8.87328e-05
0.000165444
0.00028436
0.00044663
0.000654119
0.000908644
0.00121119
0.00156133
0.00195637
0.0023902
0.00285238
0.00332753
0.00379367
0.00422323
0.00458415
0.00484395
0.00499959
0.00497416
2.67414e-05
-5.01895e-06
3.73337e-05
0.000111062
0.000226384
0.000384615
0.000588147
0.000839547
0.00114075
0.00149247
0.00189324
0.00233844
0.00281934
0.00332018
0.00381831
0.00428361
0.00467917
0.00496516
0.00513672
0.00509808
-6.39737e-05
-0.000100636
-6.03819e-05
9.23808e-06
0.00011954
0.00027219
0.000470385
0.000717813
0.00101787
0.00137308
0.00178411
0.00224845
0.00275924
0.00330265
0.00385497
0.00438198
0.00483843
0.00517193
0.00537326
0.00532127
-0.000209557
-0.000250899
-0.000213883
-0.000149702
-4.59316e-05
9.95595e-05
0.000290973
0.000533435
0.000832281
0.00119256
0.00161802
0.00210963
0.00266354
0.00326852
0.00390065
0.00452106
0.00507323
0.00548432
0.00573499
0.00566489
-0.000409283
-0.000455776
-0.000423159
-0.000366123
-0.000271154
-0.000135612
4.583e-05
0.000279965
0.00057448
0.000937636
0.00137741
0.00189977
0.00250604
0.00319061
0.00393126
0.00468494
0.00538043
0.00591465
0.00624617
0.00614992
-0.000662091
-0.000714659
-0.000687779
-0.000640176
-0.000557282
-0.000436037
-0.000270012
-5.06695e-05
0.000232297
0.000590977
0.00103877
0.0015888
0.0022501
0.00302719
0.00390473
0.00483959
0.00574434
0.00647462
0.00694229
0.00681211
-0.000966983
-0.00102686
-0.00100725
-0.000971911
-0.000905335
-0.000804317
-0.000661592
-0.000467105
-0.000208011
0.000131825
0.000572057
0.00113518
0.00184385
0.00271155
0.00374615
0.00491326
0.00611535
0.00715957
0.00786815
0.00771207
-0.00132264
-0.0013912
-0.00138039
-0.00136039
-0.00131504
-0.0012415
-0.00113227
-0.00097645
-0.00075936
-0.000461445
-5.71651e-05
0.000485865
0.00120553
0.00213885
0.00332349
0.0047566
0.00635899
0.00790809
0.00905791
0.00896939
-0.00172736
-0.00180602
-0.00180503
-0.00180316
-0.00178399
-0.0017458
-0.00168184
-0.00158165
-0.00143037
-0.00120701
-0.000882277
-0.000415726
0.000247139
0.0011723
0.00242119
0.00406879
0.00612388
0.00844841
0.0104039
0.0107093
-0.00217929
-0.00226932
-0.00227796
-0.0022958
-0.00230671
-0.00231111
-0.00230436
-0.00227821
-0.00222027
-0.00211216
-0.00192694
-0.00162485
-0.00114745
-0.000414957
0.000664882
0.00220627
0.00449292
0.00776077
0.0111036
0.0125995
-0.00267703
-0.00277893
-0.00279427
-0.00283082
-0.00287324
-0.00292523
-0.00298559
-0.00305044
-0.00311318
-0.00316346
-0.00318582
-0.00315842
-0.00305135
-0.00282896
-0.00247007
-0.00190779
-0.000681261
0.00272459
0.00769899
0.012154
-0.00322256
-0.0033372
-0.00335349
-0.00340389
-0.00347375
-0.00357217
-0.00370326
-0.00386983
-0.0040745
-0.00432152
-0.00461901
-0.00498479
-0.00546142
-0.00616321
-0.0073774
-0.00935069
-0.0112277
-0.00904872
-0.00315184
0.00559606
-0.00381389
-0.00392956
-0.00392691
-0.00397697
-0.00406723
-0.00421
-0.00441193
-0.00468189
-0.00503418
-0.00549131
-0.00609354
-0.00691853
-0.00812432
-0.010033
-0.013364
-0.0186042
-0.0251342
-0.0252247
-0.0193672
-0.00631688
-0.00448694
-0.00462504
-0.00459083
-0.00463381
-0.00471951
-0.00487606
-0.00511806
-0.00546377
-0.00593819
-0.00658043
-0.00745991
-0.00870219
-0.0105678
-0.0135136
-0.0185546
-0.0260156
-0.0360999
-0.0383568
-0.0339737
-0.0176503
-0.00532907
-0.00525749
-0.00511375
-0.00506079
-0.00512549
-0.00530922
-0.00561203
-0.00604211
-0.00662391
-0.00740141
-0.00845672
-0.00993006
-0.0121462
-0.0155045
-0.0212743
-0.0290505
-0.0401302
-0.0425737
-0.0399499
-0.0192839
-0.00581842
-0.00627783
-0.00600003
-0.00601763
-0.00599604
-0.00608901
-0.00630867
-0.00668221
-0.00723874
-0.00801437
-0.00908781
-0.0105652
-0.0128152
-0.0160046
-0.0215518
-0.0284271
-0.0372953
-0.0388829
-0.0345694
-0.0046182
-0.00928832
-0.00675224
-0.00613685
-0.00556285
-0.00550058
-0.00568048
-0.00604548
-0.00654887
-0.00720462
-0.00802524
-0.00910688
-0.0104844
-0.0125328
-0.0153532
-0.0198361
-0.0247965
-0.0302782
-0.0284103
-0.0181455
0.0285997
-0.00584016
-0.00890786
-0.00794708
-0.00804097
-0.00762636
-0.00740451
-0.00735641
-0.00750853
-0.00789352
-0.00848678
-0.00937109
-0.0105497
-0.0124424
-0.0149722
-0.0193572
-0.0234662
-0.027471
-0.0171365
0.00817735
0.0870746
-0.0311636
-0.00605423
-0.00470274
-0.00400256
-0.00382651
-0.00406117
-0.00459503
-0.00521772
-0.00600877
-0.0068838
-0.00809859
-0.0094639
-0.0115342
-0.0137616
-0.016384
-0.0160281
-0.00964872
0.0211173
0.0883333
0.222356
5.37792e-05
2.99639e-05
6.95481e-05
0.000146871
0.000269231
0.000437212
0.000652245
0.000915872
0.00122885
0.00159043
0.00199749
0.00244343
0.00291717
0.00340213
0.00387569
0.00430982
0.00467256
0.00493143
0.00508106
0.00505823
7.95575e-05
5.47331e-05
9.85871e-05
0.000175669
0.000295281
0.000458642
0.000667717
0.00092444
0.00122992
0.00158385
0.00198364
0.0024232
0.00289209
0.00337468
0.00384864
0.00428576
0.00465324
0.00491775
0.00507607
0.00505035
3.72076e-05
5.39442e-06
4.79387e-05
0.000122056
0.000238107
0.000397485
0.000602695
0.000856442
0.00116081
0.00151667
0.00192271
0.00237441
0.00286302
0.00337259
0.00388007
0.00435461
0.00475833
0.00505023
0.00522518
0.00518592
-5.24247e-05
-8.91435e-05
-4.86795e-05
2.1358e-05
0.000132443
0.00028633
0.000486352
0.000736366
0.00103997
0.0013999
0.00181703
0.00228906
0.00280923
0.00336354
0.00392782
0.00446699
0.00493441
0.005276
0.00548198
0.0054287
-0.000196665
-0.000238063
-0.000200819
-0.000136186
-3.15648e-05
0.000115281
0.00030872
0.00055409
0.000856988
0.00122276
0.0016555
0.00215647
0.00272212
0.00334111
0.00398913
0.0046262
0.00519392
0.00561663
0.00587408
0.00580118
-0.000394783
-0.000441332
-0.000408474
-0.000350958
-0.000255074
-0.000118058
6.56185e-05
0.000303014
0.00060215
0.000971704
0.00142014
0.00195395
0.00257494
0.00327769
0.00403967
0.00481659
0.00553463
0.00608624
0.0064281
0.00632575
-0.000645684
-0.00069831
-0.000671193
-0.000623107
-0.000539267
-0.000416471
-0.00024805
-2.51508e-05
0.000262958
0.000628914
0.00108681
0.00165061
0.0023302
0.00313033
0.00403621
0.0050035
0.00594132