/*--------------------------------*- C++ -*----------------------------------*\
  =========                 |
  \\      /  F ield         | OpenFOAM: The Open Source CFD Toolbox
   \\    /   O peration     | Website:  https://openfoam.org
    \\  /    A nd           | Version:  10
     \\/     M anipulation  |
\*---------------------------------------------------------------------------*/
FoamFile
{
    format      ascii;
    class       volScalarField;
    location    "3.525";
    object      p;
}
// * * * * * * * * * * * * * * * * * * * * * * * * * * * * * * * * * * * * * //

dimensions      [0 2 -2 0 0 0 0];

internalField   nonuniform List<scalar> 
400
(
1.26227e-09
-3.21298e-05
-1.25336e-05
3.22984e-05
0.000108094
0.00021531
0.000353956
0.000523707
0.000723374
0.000950521
0.00120112
0.00146921
0.00174665
0.00202303
0.00228587
0.00252127
0.00271442
0.0028515
0.00293102
0.00290919
3.20627e-05
-1.28448e-06
1.89676e-05
6.1349e-05
0.000132924
0.000234724
0.000367143
0.000530215
0.000723106
0.000943743
0.00118845
0.00145136
0.00172502
0.00199905
0.00226098
0.00249671
0.00269105
0.00283007
0.00291329
0.00289008
9.0403e-06
-2.90209e-05
-1.03827e-05
2.94914e-05
9.83989e-05
0.0001976
0.000327867
0.000489713
0.000682825
0.000905649
0.00115499
0.00142596
0.0017106
0.00199846
0.00227642
0.00252915
0.00273953
0.00289115
0.00298285
0.00295556
-4.40382e-05
-8.63272e-05
-6.98684e-05
-3.32317e-05
3.22912e-05
0.00012836
0.000256353
0.000417521
0.000612377
0.000840232
0.00109871
0.00138336
0.0016872
0.00199936
0.00230554
0.00258821
0.0028271
0.0030016
0.00310892
0.00307962
-0.000132902
-0.000179975
-0.000166334
-0.00013366
-7.21398e-05
2.04231e-05
0.000146215
0.000307477
0.00050586
0.000741907
0.00101447
0.00132008
0.00165246
0.00200073
0.00234943
0.00267818
0.00296179
0.00317293
0.00330556
0.00327579
-0.000258025
-0.000310993
-0.000301008
-0.00027345
-0.000217189
-0.000129345
-6.72065e-06
0.000154201
0.000356569
0.000602606
0.000892912
0.00122563
0.00159607
0.00199361
0.00240169
0.00279653
0.00314631
0.00341336
0.00358551
0.00355789
-0.000419888
-0.000480146
-0.00047494
-0.000454251
-0.000405374
-0.000324622
-0.000207571
-4.91195e-05
0.0001558
0.000411657
0.000721516
0.00108594
0.00150311
0.00196363
0.00245066
0.00293689
0.00338213
0.00373336
0.00396688
0.0039478
-0.000619382
-0.000688585
-0.000689628
-0.000678238
-0.000639872
-0.000569953
-0.000462639
-0.000310937
-0.000107419
0.000155282
0.000483625
0.000881593
0.00135214
0.0018889
0.00247684
0.00308611
0.00366705
0.00414538
0.0044751
0.00448044
-0.000857567
-0.000937613
-0.000946683
-0.00094772
-0.000924088
-0.000870293
-0.00077894
-0.000640923
-0.000446068
-0.000183436
0.000158094
0.000589223
0.00111291
0.00173614
0.00244767
0.0032181
0.00398919
0.0046609
0.00514389
0.0052131
-0.00113564
-0.00122862
-0.00124767
-0.00126489
-0.0012613
-0.00123057
-0.00116369
-0.00104936
-0.000874502
-0.000624307
-0.000282458
0.000167844
0.000742317
0.00145579
0.00230987
0.00328337
0.00431548
0.00528138
0.00601445
0.00624449
-0.00145509
-0.0015632
-0.001594
-0.00163153
-0.00165424
-0.00165509
-0.00162353
-0.00154615
-0.00140712
-0.00118782
-0.00086637
-0.000417638
0.000185989
0.000977258
0.00197902
0.0031911
0.00456844
0.00597468
0.00713044
0.00775005
-0.00181821
-0.00194343
-0.00198689
-0.00204872
-0.00210453
-0.00214676
-0.00216341
-0.00213929
-0.00205639
-0.00189305
-0.00162253
-0.00121096
-0.000615287
0.000207454
0.00132721
0.00277879
0.00457815
0.00662145
0.00848653
0.0100479
-0.0022294
-0.00237253
-0.00242731
-0.00251643
-0.00261203
-0.00270617
-0.00278537
-0.00283303
-0.00283011
-0.002754
-0.00257647
-0.00226013
-0.00175474
-0.000996314
0.000155226
0.00175655
0.00398119
0.00686262
0.00989567
0.0135797
-0.00269778
-0.00285529
-0.00291367
-0.00303077
-0.00317301
-0.0033306
-0.00348744
-0.00362591
-0.00372765
-0.00377205
-0.00373419
-0.00358001
-0.00325484
-0.00265511
-0.00164697
-0.000254769
0.00210965
0.00576155
0.0103335
0.0178167
-0.00324142
-0.0034203
-0.00347265
-0.00361943
-0.00380406
-0.00402406
-0.00426526
-0.00450919
-0.00473739
-0.00493351
-0.00508443
-0.00517759
-0.00519575
-0.00511085
-0.00490778
-0.00419892
-0.00280255
0.000732497
0.0057646
0.0185672
-0.0039463
-0.00392745
-0.00392849
-0.00406057
-0.0043161
-0.00465318
-0.00503642
-0.00543287
-0.00582074
-0.00618988
-0.00654686
-0.00691459
-0.0073386
-0.00788971
-0.00869974
-0.00981971
-0.0113692
-0.0105625
-0.00754622
0.0115506
-0.00444551
-0.00495356
-0.00485897
-0.00512931
-0.00539987
-0.00575136
-0.00616598
-0.00661972
-0.00709685
-0.00759087
-0.0081227
-0.00875364
-0.00961956
-0.0109582
-0.0133031
-0.0169825
-0.0246625
-0.028694
-0.0265263
0.00165687
-0.00756325
-0.00510057
-0.00482113
-0.00471934
-0.0051184
-0.00572703
-0.00644951
-0.00719376
-0.00793001
-0.00863179
-0.00934806
-0.0101412
-0.0112745
-0.0129843
-0.0164988
-0.0213373
-0.0325154
-0.0392221
-0.0368275
0.0127787
-0.00446691
-0.00740621
-0.00682673
-0.00742938
-0.00766856
-0.00807325
-0.00859819
-0.00916901
-0.00976882
-0.0103659
-0.0109373
-0.0116354
-0.0126905
-0.0143263
-0.0185108
-0.0236933
-0.0347871
-0.0367366
-0.0173591
0.0644954
-0.028591
-0.00393965
-0.00323972
-0.00321532
-0.0037778
-0.00475642
-0.00595646
-0.00707762
-0.00820015
-0.00911328
-0.0101076
-0.0109769
-0.0123928
-0.0140199
-0.0166751
-0.0182596
-0.0164516
0.00444888
0.0647715
0.199934
)
;

boundaryField
{
    movingWall
    {
        type            zeroGradient;
    }
    fixedWalls
    {
        type            zeroGradient;
    }
    frontAndBack
    {
        type            empty;
    }
}


// ************************************************************************* //
