/*--------------------------------*- C++ -*----------------------------------*\
  =========                 |
  \\      /  F ield         | OpenFOAM: The Open Source CFD Toolbox
   \\    /   O peration     | Website:  https://openfoam.org
    \\  /    A nd           | Version:  10
     \\/     M anipulation  |
\*---------------------------------------------------------------------------*/
FoamFile
{
    format      ascii;
    class       surfaceScalarField;
    location    "7.275";
    object      phi;
}
// * * * * * * * * * * * * * * * * * * * * * * * * * * * * * * * * * * * * * //

dimensions      [0 3 -1 0 0 0 0];

internalField   nonuniform List<scalar> 
760
(
-1.09919e-05
1.09919e-05
-3.56383e-05
2.46464e-05
-6.51661e-05
2.95278e-05
-9.59787e-05
3.08126e-05
-0.000126902
3.0923e-05
-0.000157522
3.06201e-05
-0.000187437
2.99148e-05
-0.000216003
2.85661e-05
-0.000242244
2.62407e-05
-0.000264795
2.25515e-05
-0.000281874
1.70794e-05
-0.000291297
9.42282e-06
-0.000290592
-7.05462e-07
-0.000277246
-1.33456e-05
-0.000249306
-2.79406e-05
-0.000206156
-4.315e-05
-0.000149767
-5.63889e-05
-8.63208e-05
-6.34459e-05
-2.82247e-05
-5.80961e-05
-2.82247e-05
-2.62078e-05
3.71997e-05
-7.41236e-05
7.25623e-05
-0.000129698
8.5102e-05
-0.000187023
8.81373e-05
-0.000243797
8.76977e-05
-0.000298889
8.5712e-05
-0.000351277
8.23029e-05
-0.000399677
7.69659e-05
-0.00044239
6.89542e-05
-0.000477225
5.73857e-05
-0.000501452
4.13064e-05
-0.000511831
1.98026e-05
-0.000505075
-7.46226e-06
-0.000477547
-4.08728e-05
-0.000426759
-7.8729e-05
-0.000352211
-0.000117698
-0.000257197
-0.000151403
-0.000151344
-0.000169299
-5.34384e-05
-0.000156002
-8.16631e-05
-3.29466e-05
7.01463e-05
-9.14159e-05
0.000131032
-0.000158466
0.000152152
-0.000227116
0.000156788
-0.000294696
0.000155278
-0.000359885
0.000150901
-0.000421522
0.000143939
-0.000478199
0.000133643
-0.000528093
0.000118849
-0.000568848
9.81398e-05
-0.000597514
6.99732e-05
-0.000610616
3.29046e-05
-0.000603888
-1.41909e-05
-0.000573004
-7.17567e-05
-0.000514409
-0.000137324
-0.000426647
-0.00020546
-0.000312823
-0.000265227
-0.000184261
-0.00029786
-6.45316e-05
-0.000275732
-0.000146195
-3.55098e-05
0.000105656
-9.86017e-05
0.000194123
-0.000170736
0.000224286
-0.00024448
0.000230532
-0.000317151
0.000227949
-0.000387536
0.000221285
-0.000454614
0.000211018
-0.000517143
0.000196172
-0.000573455
0.000175161
-0.000621281
0.000145966
-0.000657564
0.000106257
-0.000678362
5.37016e-05
-0.000678834
-1.37185e-05
-0.000652768
-9.78224e-05
-0.000594342
-0.00019575
-0.000499462
-0.00030034
-0.000369542
-0.000395147
-0.000217643
-0.000449759
-7.41348e-05
-0.00041924
-0.00022033
-3.6459e-05
0.000142115
-0.000101942
0.000259606
-0.000176953
0.000299297
-0.000253836
0.000307415
-0.000330037
0.00030415
-0.000404601
0.00029585
-0.000476835
0.000283251
-0.000545856
0.000265194
-0.00061036
0.000239665
-0.000668352
0.000203958
-0.000716813
0.000154718
-0.000751261
8.81494e-05
-0.000766102
1.12345e-06
-0.000752276
-0.000111649
-0.000700474
-0.000247552
-0.000601712
-0.000399101
-0.000453065
-0.000543795
-0.000267923
-0.000634901
-8.79731e-05
-0.00059919
-0.000308303
-3.69389e-05
0.000179054
-0.000104196
0.000326863
-0.000181556
0.000376657
-0.000261184
0.000387043
-0.000340718
0.000383683
-0.000419567
0.000374699
-0.000497511
0.000361195
-0.000574231
0.000341914
-0.000649035
0.000314469
-0.000720523
0.000275445
-0.000786089
0.000220284
-0.000841225
0.000143286
-0.000878365
3.82625e-05
-0.00088731
-0.000102704
-0.000852375
-0.000282486
-0.000756595
-0.000494882
-0.000587482
-0.000712907
-0.000353072
-0.000869311
-0.00011218
-0.000840083
-0.000420482
-3.731e-05
0.000216364
-0.000106259
0.000395812
-0.000185907
0.000456305
-0.000268213
0.00046935
-0.000351036
0.000466506
-0.000434238
0.000457901
-0.000518221
0.000445178
-0.000603461
0.000427154
-0.000690232
0.00040124
-0.000778212
0.000363426
-0.000865842
0.000307914
-0.000949284
0.000226727
-0.00102075
0.000109731
-0.00106807
-5.53813e-05
-0.00106951
-0.000281055
-0.000995891
-0.000568497
-0.000814544
-0.000894254
-0.000510724
-0.00117313
-0.000162929
-0.00118788
-0.000583412
-3.76415e-05
0.000254006
-0.000108314
0.000466485
-0.000190204
0.000538195
-0.000274984
0.00055413
-0.000360739
0.00055226
-0.000447849
0.000545011
-0.000537482
0.000534811
-0.000631159
0.000520831
-0.000730539
0.00050062
-0.00083707
0.000469957
-0.000951318
0.000422161
-0.00107176
0.000347172
-0.00119267
0.000230642
-0.00130277
5.47154e-05
-0.00137741
-0.000206411
-0.00137163
-0.000574286
-0.00121179
-0.00105409
-0.000818625
-0.0015663
-0.000281742
-0.00172476
-0.000865154
-3.79713e-05
0.000291977
-0.000110428
0.000538941
-0.000194407
0.000622173
-0.000281174
0.000640898
-0.000369014
0.000640101
-0.000458851
0.000634848
-0.0005527
0.000628659
-0.000653338
0.000621469
-0.000764249
0.000611531
-0.000889487
0.000595195
-0.00103326
0.000565933
-0.00119896
0.000512878
-0.00138735
0.000419027
-0.00159259
0.000259959
-0.00180398
4.98042e-06
-0.00194877
-0.000429497
-0.00187537
-0.00112749
-0.00137359
-0.00206808
-0.00053536
-0.00256299
-0.00140051
-3.84373e-05
0.000330414
-0.000112847
0.000613351
-0.000198683
0.000708009
-0.000286645
0.00072886
-0.000375169
0.000728625
-0.000465693
0.000725372
-0.000561066
0.000724032
-0.000665353
0.000725756
-0.000784076
0.000730255
-0.00092458
0.000735698
-0.00109639
0.000737742
-0.00131143
0.000727922
-0.00158408
0.000691675
-0.00192902
0.000604896
-0.00233498
0.000410946
-0.00271759
-4.68904e-05
-0.00277174
-0.00107334
-0.00214246
-0.00269735
-0.000965677
-0.00373978
-0.00236619
-3.93787e-05
0.000369793
-0.000116212
0.000690184
-0.000203695
0.000795492
-0.000291809
0.000816974
-0.000379074
0.000815891
-0.000467359
0.000813656
-0.000560179
0.000816852
-0.000662659
0.000828235
-0.00078213
0.000849726
-0.00092918
0.000882748
-0.0011193
0.00092786
-0.00137547
0.000984091
-0.00173081
0.00104701
-0.00222209
0.00109618
-0.00283942
0.00102827
-0.00339788
0.000511567
-0.00351745
-0.000953761
-0.00284418
-0.00337063
-0.00153703
-0.00504693
-0.00390322
-4.1497e-05
0.00041129
-0.000121829
0.000770516
-0.000210899
0.000884562
-0.000297936
0.000904011
-0.000381561
0.000899516
-0.000463955
0.00089605
-0.000548976
0.000901873
-0.000642199
0.000921458
-0.000751879
0.000959406
-0.000890616
0.00102149
-0.00107816
0.0011154
-0.00134552
0.00125146
-0.00173646
0.00143795
-0.00228485
0.00164457
-0.00294733
0.00169075
-0.00348787
0.00105211
-0.00358299
-0.000858638
-0.0030745
-0.00387912
-0.00193951
-0.00618191
-0.00584274
-4.58542e-05
0.000457144
-0.000131644
0.000856306
-0.000222673
0.00097559
-0.000307531
0.00098887
-0.000384942
0.000976927
-0.000457295
0.000968403
-0.000528466
0.000973044
-0.000603397
0.000996389
-0.000689367
0.00104538
-0.000797702
0.00112982
-0.000946277
0.00126398
-0.00116167
0.00146685
-0.00147756
0.00175384
-0.00190297
0.00206999
-0.00237204
0.00215981
-0.00271582
0.00139589
-0.00282112
-0.000753334
-0.00263457
-0.00406567
-0.00182997
-0.00698651
-0.00767271
-5.57778e-05
0.000512922
-0.000150762
0.00095129
-0.000243401
0.00106823
-0.000323445
0.00106891
-0.000391493
0.00104497
-0.000450276
0.00102719
-0.000502389
0.00102516
-0.0005511
0.0010451
-0.000600653
0.00109493
-0.000657076
0.00118624
-0.000729284
0.00133618
-0.000826878
0.00156444
-0.000958753
0.00188572
-0.00111068
0.00222192
-0.00125836
0.00230749
-0.00135492
0.00149244
-0.00146741
-0.000640842
-0.00162658
-0.00390649
-0.00131408
-0.00729902
-0.00898678
-6.80829e-05
0.000581005
-0.000175867
0.00105907
-0.000274265
0.00116663
-0.000353578
0.00114823
-0.000412311
0.00110371
-0.000454164
0.00106904
-0.000481991
0.00105298
-0.000497374
0.00106048
-0.000500657
0.00109821
-0.000490869
0.00117645
-0.000465823
0.00131114
-0.000416663
0.00151528
-0.000330273
0.00179933
-0.000191321
0.00208296
-2.52413e-05
0.00214141
5.21218e-05
0.00141508
-5.23759e-05
-0.000536344
-0.000572994
-0.00338587
-0.0007765
-0.00709552
-0.00976328
-0.000135502
0.000716507
-0.000257935
0.00118151
-0.000342372
0.00125107
-0.000397369
0.00120322
-0.000433673
0.00114001
-0.000454968
0.00109033
-0.000460315
0.00105833
-0.000446333
0.0010465
-0.000407987
0.00105987
-0.000337035
0.0011055
-0.00022228
0.00119638
-4.47094e-05
0.00133771
0.000215555
0.00153906
0.00056547
0.00173305
0.000950292
0.00175659
0.00117414
0.00119124
0.0010005
-0.000362703
0.000227209
-0.00261259
-0.000314686
-0.00655362
-0.010078
-8.79404e-05
0.000804447
-0.000274882
0.00136845
-0.000400436
0.00137662
-0.000472461
0.00127525
-0.000505619
0.00117317
-0.000509923
0.00109464
-0.000488337
0.00103675
-0.000439023
0.000997188
-0.000356621
0.000977464
-0.000229249
0.00097813
-4.16842e-05
0.00100882
0.000223495
0.00107253
0.000588392
0.00117417
0.00105453
0.00126691
0.00154601
0.00126511
0.00184167
0.000895581
0.0016319
-0.000152939
0.000833811
-0.0018145
0.000163203
-0.00588301
-0.00991477
-0.000382929
0.00118738
-0.00045111
0.00143663
-0.000514418
0.00143993
-0.000568137
0.00132897
-0.000575454
0.00118049
-0.000542401
0.00106159
-0.000473477
0.000967821
-0.000367736
0.000891447
-0.000226098
0.000835825
-4.00957e-05
0.000792128
0.000197221
0.000771503
0.000502368
0.000767384
0.000885076
0.00079146
0.00133409
0.000817895
0.00180845
0.00079075
0.00211639
0.000587635
0.00212621
-0.000162752
0.00168377
-0.00137206
0.000911111
-0.00511035
-0.00900365
-0.00136138
0.00254876
-0.00132709
0.00140234
-0.00107482
0.00118766
-0.000711132
0.000965279
-0.000326086
0.00079544
6.32295e-05
0.00067227
0.000444982
0.000586069
0.000818194
0.000518235
0.00118428
0.000469742
0.00154759
0.000428815
0.00191772
0.000401372
0.00230199
0.000383119
0.00272448
0.000368971
0.00318461
0.000357763
0.00368397
0.000291394
0.00410775
0.000163851
0.00424099
-0.000295993
0.00404986
-0.00118093
0.00255747
-0.00361796
-0.00644619
0.00254876
0.0039511
0.00513875
0.00610403
0.00689947
0.00757174
0.00815781
0.00867605
0.00914579
0.0095746
0.00997598
0.0103591
0.0107281
0.0110858
0.0113772
0.0115411
0.0112451
0.0100641
0.00644619
)
;

boundaryField
{
    movingWall
    {
        type            calculated;
        value           uniform 0;
    }
    fixedWalls
    {
        type            calculated;
        value           uniform 0;
    }
    frontAndBack
    {
        type            empty;
        value           nonuniform List<scalar> 0();
    }
}


// ************************************************************************* //
