/*--------------------------------*- C++ -*----------------------------------*\
  =========                 |
  \\      /  F ield         | OpenFOAM: The Open Source CFD Toolbox
   \\    /   O peration     | Website:  https://openfoam.org
    \\  /    A nd           | Version:  10
     \\/     M anipulation  |
\*---------------------------------------------------------------------------*/
FoamFile
{
    format      ascii;
    class       surfaceScalarField;
    location    "5.275";
    object      phi;
}
// * * * * * * * * * * * * * * * * * * * * * * * * * * * * * * * * * * * * * //

dimensions      [0 3 -1 0 0 0 0];

internalField   nonuniform List<scalar> 
760
(
-8.61319e-06
8.61319e-06
-2.86599e-05
2.00467e-05
-5.21138e-05
2.34539e-05
-7.58683e-05
2.37545e-05
-9.89429e-05
2.30746e-05
-0.000120894
2.19515e-05
-0.000141292
2.03979e-05
-0.000159597
1.83045e-05
-0.000175136
1.55391e-05
-0.000187103
1.19668e-05
-0.000194568
7.46511e-06
-0.000196516
1.94864e-06
-0.0001919
-4.61596e-06
-0.000179814
-1.20869e-05
-0.000159657
-2.01565e-05
-0.000131398
-2.82593e-05
-9.60089e-05
-3.53889e-05
-5.63337e-05
-3.96753e-05
-1.91298e-05
-3.72038e-05
-1.91298e-05
-2.09837e-05
2.95969e-05
-5.94583e-05
5.85212e-05
-0.000102828
6.68235e-05
-0.000146196
6.71223e-05
-0.000187755
6.4634e-05
-0.000226525
6.07211e-05
-0.000261625
5.54981e-05
-0.000292098
4.8778e-05
-0.000316865
4.03058e-05
-0.000334712
2.98138e-05
-0.000344268
1.70207e-05
-0.000344263
1.9443e-06
-0.000333207
-1.56726e-05
-0.00030997
-3.53232e-05
-0.000273901
-5.62256e-05
-0.000225195
-7.6966e-05
-0.000165509
-9.50748e-05
-9.92763e-05
-0.000105908
-3.64962e-05
-9.99839e-05
-5.5626e-05
-2.5827e-05
5.5424e-05
-7.17085e-05
0.000104403
-0.000122875
0.00011799
-0.000173735
0.000117982
-0.000222262
0.000113161
-0.000267352
0.000105812
-0.000308028
9.61737e-05
-0.000343243
8.3993e-05
-0.000371831
6.88935e-05
-0.000392481
5.04645e-05
-0.000403791
2.83307e-05
-0.000404147
2.29986e-06
-0.000391854
-2.79657e-05
-0.000365519
-6.16583e-05
-0.000324156
-9.75885e-05
-0.000267689
-0.000133433
-0.000197742
-0.000165022
-0.000119317
-0.000184332
-4.42521e-05
-0.000175049
-9.98782e-05
-2.76835e-05
8.31075e-05
-7.69355e-05
0.000153655
-0.000131727
0.000172782
-0.000186156
0.000172411
-0.00023818
0.000165184
-0.00028673
0.000154362
-0.000330866
0.00014031
-0.000369576
0.000122703
-0.000401704
0.000101021
-0.000425901
7.46613e-05
-0.0004406
4.30297e-05
-0.000444054
5.75436e-06
-0.000434092
-3.79277e-05
-0.000408635
-8.71157e-05
-0.000365907
-0.000140316
-0.000305043
-0.000194297
-0.000227263
-0.000242802
-0.000138012
-0.000273583
-5.13098e-05
-0.000261751
-0.000151188
-2.88982e-05
0.000112006
-8.07414e-05
0.000205498
-0.000138473
0.000230513
-0.000195942
0.000229881
-0.000251137
0.00022038
-0.000303086
0.00020631
-0.000350956
0.00018818
-0.000393836
0.000165582
-0.000430634
0.00013782
-0.000459995
0.000104023
-0.000480209
6.32434e-05
-0.000489121
1.4666e-05
-0.000484126
-4.2922e-05
-0.000462075
-0.000109167
-0.000419891
-0.0001825
-0.000355231
-0.000258957
-0.000268178
-0.000329856
-0.000164556
-0.000377204
-6.1622e-05
-0.000364685
-0.00021281
-3.0235e-05
0.000142241
-8.496e-05
0.000260223
-0.000146014
0.000291567
-0.000206959
0.000290827
-0.000265832
0.000279252
-0.000321799
0.000262278
-0.000374199
0.00024058
-0.000422292
0.000213675
-0.000465135
0.000180663
-0.000501446
0.000140333
-0.000529427
9.12251e-05
-0.000546588
3.18269e-05
-0.000549673
-3.98368e-05
-0.000534116
-0.000124725
-0.000494901
-0.000221715
-0.000427207
-0.000326651
-0.000328793
-0.00042827
-0.000205133
-0.000500864
-7.81244e-05
-0.000491694
-0.000290934
-3.18709e-05
0.000174112
-9.00345e-05
0.000318386
-0.000155013
0.000356545
-0.000220016
0.00035583
-0.000283146
0.000342382
-0.000343762
0.000322894
-0.000401447
0.000298265
-0.00045574
0.000267967
-0.000505978
0.000230901
-0.00055111
0.000185465
-0.000589429
0.000129545
-0.000618221
6.06188e-05
-0.000633648
-2.44099e-05
-0.000629444
-0.000128929
-0.000597849
-0.00025331
-0.00053008
-0.00039442
-0.000419402
-0.000538948
-0.000268769
-0.000651497
-0.000105855
-0.000654608
-0.000396789
-3.38373e-05
0.000207949
-9.60501e-05
0.000380599
-0.000165549
0.000426044
-0.000235115
0.000425396
-0.000302936
0.000410202
-0.000368626
0.000388584
-0.000432109
0.000361748
-0.000493337
0.000329195
-0.000552122
0.000289686
-0.0006079
0.000241243
-0.00065937
0.000181015
-0.000703914
0.000105163
-0.000737683
9.35925e-06
-0.000752388
-0.000114224
-0.000737049
-0.00026865
-0.000676965
-0.000454503
-0.000557256
-0.000658657
-0.000373332
-0.000835421
-0.000156383
-0.000871557
-0.000553172
-3.61759e-05
0.000244125
-0.000103085
0.000447509
-0.000177651
0.00050061
-0.000252137
0.000499882
-0.000324844
0.000482909
-0.000395707
0.000459448
-0.000465098
0.000431139
-0.000533548
0.000397645
-0.00060159
0.000357728
-0.000669526
0.000309179
-0.000737021
0.00024851
-0.000802425
0.000170567
-0.000861351
6.82848e-05
-0.000906638
-6.8936e-05
-0.000922848
-0.00025244
-0.00088784
-0.000489511
-0.000773523
-0.000772974
-0.000557391
-0.00105155
-0.000258147
-0.0011708
-0.000811319
-3.90057e-05
0.00028313
-0.000111356
0.000519859
-0.000191495
0.000580749
-0.000271076
0.000579464
-0.00034855
0.000560383
-0.000424246
0.000535143
-0.000499084
0.000505977
-0.000574334
0.000472895
-0.00065152
0.000434914
-0.000732255
0.000389914
-0.000817878
0.000334133
-0.000908691
0.00026138
-0.00100239
0.000161983
-0.00109391
2.25827e-05
-0.00116667
-0.000179678
-0.0011924
-0.000463787
-0.0011244
-0.000840967
-0.000900241
-0.00127571
-0.000476434
-0.00159461
-0.00128775
-4.25917e-05
0.000325722
-0.000121339
0.000598607
-0.000207548
0.000666958
-0.000292193
0.000664109
-0.000373939
0.000642128
-0.000453579
0.000614784
-0.000532657
0.000585055
-0.000613282
0.00055352
-0.000698177
0.000519808
-0.000790717
0.000482454
-0.000894829
0.000438244
-0.00101453
0.000381083
-0.00115273
0.000300181
-0.00130794
0.00017779
-0.00147631
-1.13058e-05
-0.00162715
-0.000312942
-0.00169126
-0.000776861
-0.00151675
-0.00145022
-0.000903688
-0.00220767
-0.00219144
-4.74584e-05
0.000373181
-0.000133956
0.000685104
-0.000226757
0.000759759
-0.00031619
0.000753542
-0.000401271
0.00072721
-0.000483343
0.000696856
-0.000564594
0.000666306
-0.00064795
0.000636877
-0.00073735
0.000609208
-0.000838159
0.000583263
-0.00095767
0.000557755
-0.0011055
0.000528918
-0.00129358
0.000488258
-0.00153476
0.000418969
-0.00183788
0.00029181
-0.00219863
4.78156e-05
-0.0024994
-0.000476098
-0.00240213
-0.00154749
-0.00147883
-0.00313097
-0.00367027
-5.45768e-05
0.000427757
-0.000150822
0.000781349
-0.000250786
0.000859723
-0.000344455
0.00084721
-0.000431417
0.000814172
-0.000513712
0.00077915
-0.000594159
0.000746753
-0.000676247
0.000718965
-0.00076475
0.00069771
-0.000866641
0.000685154
-0.000992432
0.000683546
-0.00115816
0.000694651
-0.00138812
0.000718214
-0.00171718
0.000748033
-0.00218317
0.000757793
-0.00276791
0.000632564
-0.00326305
1.90347e-05
-0.00312548
-0.00168506
-0.00187238
-0.00438407
-0.00554265
-6.63784e-05
0.000494136
-0.000175413
0.000890384
-0.00028242
0.00096673
-0.000378577
0.000943367
-0.000465286
0.000900881
-0.000545335
0.0008592
-0.00062158
0.000822998
-0.000697552
0.000794937
-0.000778164
0.000778322
-0.000870875
0.000777866
-0.000987866
0.000800537
-0.0011495
0.00085628
-0.00138949
0.000958206
-0.00175396
0.0011125
-0.00228249
0.00128632
-0.00291475
0.00126482
-0.00337887
0.000483148
-0.0031229
-0.00194103
-0.00190128
-0.00560569
-0.00744393
-8.08026e-05
0.000574938
-0.000206169
0.00101575
-0.000323167
0.00108373
-0.00042428
0.00104448
-0.000509719
0.00098632
-0.000583823
0.000933303
-0.000650582
0.000889758
-0.000713524
0.000857879
-0.000776315
0.000841114
-0.000844132
0.000845683
-0.00092662
0.000883025
-0.00104037
0.00097003
-0.00121577
0.00113361
-0.00148845
0.00138519
-0.00188515
0.00168303
-0.00230566
0.00168533
-0.00259844
0.000775927
-0.00243695
-0.00210252
-0.00166001
-0.00638262
-0.00910394
-0.000146591
0.000721529
-0.00028558
0.00115474
-0.000392979
0.00119113
-0.000477683
0.00112918
-0.000550463
0.0010591
-0.000614943
0.000997784
-0.000672079
0.000946894
-0.000721666
0.000907465
-0.000763672
0.00088312
-0.000797789
0.000879801
-0.000825213
0.000910449
-0.000848828
0.000993645
-0.000879433
0.00116421
-0.000917496
0.00142325
-0.000982264
0.00174779
-0.00103356
0.00173663
-0.00111017
0.00085254
-0.00124042
-0.00197228
-0.00104328
-0.00657976
-0.0101472
-9.69517e-05
0.000818481
-0.000299674
0.00135746
-0.00045136
0.00134281
-0.000559521
0.00123734
-0.000634975
0.00113455
-0.000687433
0.00105024
-0.000722204
0.000981664
-0.000741091
0.000926352
-0.000743253
0.000885282
-0.000722813
0.00085936
-0.000672042
0.000859678
-0.000574362
0.000895965
-0.000413881
0.00100373
-0.000167046
0.00117641
0.000171061
0.00140969
0.000485627
0.00142206
0.000613337
0.000724829
0.000188399
-0.00154734
-9.85828e-05
-0.00629278
-0.0102458
-0.000389028
0.00120751
-0.000480685
0.00144912
-0.000571041
0.00143317
-0.000653984
0.00132029
-0.000692917
0.00117349
-0.000695378
0.0010527
-0.000669231
0.000955517
-0.000616214
0.000873334
-0.000540636
0.000809704
-0.000435604
0.000754328
-0.000296447
0.000720521
-0.000103694
0.000703212
0.000172254
0.000727783
0.000557661
0.000791007
0.00108438
0.000882974
0.00163312
0.000873323
0.0020914
0.000266544
0.00185711
-0.00131305
0.000973593
-0.00540926
-0.00927221
-0.00134805
0.00255556
-0.00130994
0.001411
-0.00106624
0.00118947
-0.000714426
0.000968472
-0.000340116
0.000799177
3.60339e-05
0.000676554
0.000401172
0.000590379
0.000751769
0.000522737
0.00108797
0.000473501
0.00141269
0.000429606
0.00173291
0.000400306
0.00205728
0.000378844
0.00241795
0.000367109
0.00283432
0.000374635
0.0033819
0.000335395
0.00399872
0.000256501
0.00444513
-0.000179862
0.00434249
-0.00121041
0.00268848
-0.00375525
-0.00658373
0.00255556
0.00396657
0.00515604
0.00612451
0.00692369
0.00760024
0.00819062
0.00871336
0.00918686
0.00961646
0.0100168
0.0103956
0.0107627
0.0111374
0.0114728
0.0117293
0.0115494
0.010339
0.00658373
)
;

boundaryField
{
    movingWall
    {
        type            calculated;
        value           uniform 0;
    }
    fixedWalls
    {
        type            calculated;
        value           uniform 0;
    }
    frontAndBack
    {
        type            empty;
        value           nonuniform List<scalar> 0();
    }
}


// ************************************************************************* //
