/*--------------------------------*- C++ -*----------------------------------*\
  =========                 |
  \\      /  F ield         | OpenFOAM: The Open Source CFD Toolbox
   \\    /   O peration     | Website:  https://openfoam.org
    \\  /    A nd           | Version:  10
     \\/     M anipulation  |
\*---------------------------------------------------------------------------*/
FoamFile
{
    format      ascii;
    class       volScalarField;
    location    "1.975";
    object      p;
}
// * * * * * * * * * * * * * * * * * * * * * * * * * * * * * * * * * * * * * //

dimensions      [0 2 -2 0 0 0 0];

internalField   nonuniform List<scalar> 
400
(
5.98028e-09
-9.75016e-06
5.16318e-05
0.000158807
0.000313535
0.000513419
0.000754806
0.00103304
0.00134232
0.00167563
0.00202471
0.00238017
0.00273147
0.00306732
0.00337596
0.00364565
0.00386521
0.00402496
0.00412191
0.00412376
8.36881e-06
-2.69344e-06
5.83628e-05
0.000163891
0.000316411
0.000513856
0.00075279
0.00102877
0.00133616
0.00166808
0.00201631
0.00237175
0.0027237
0.00306081
0.00337115
0.0036428
0.00386429
0.00402577
0.0041247
0.00412577
-5.51365e-05
-6.86689e-05
-7.07913e-06
9.97711e-05
0.000254774
0.000456015
0.000700211
0.000983057
0.00129902
0.00164125
0.00200167
0.00237082
0.00273764
0.00309034
0.00341633
0.00370282
0.00393727
0.00410871
0.0042141
0.00421436
-0.000170563
-0.000186516
-0.000123559
-1.37857e-05
0.000146196
0.000354723
0.000608731
0.000904111
0.00123546
0.00159598
0.00197737
0.0023702
0.00276277
0.00314243
0.00349548
0.00380766
0.00406468
0.00425363
0.00437046
0.0043714
-0.000342363
-0.000361229
-0.000296109
-0.000181808
-1.4278e-05
0.00020516
0.000473737
0.000787605
0.00114155
0.00152882
0.00194099
0.00236833
0.00279853
0.00321784
0.00361098
0.00396154
0.00425258
0.00446821
0.00460262
0.00460546
-0.000574203
-0.00059686
-0.000528953
-0.000408767
-0.000231387
2.3316e-06
0.000290025
0.000628205
0.00101193
0.00143461
0.00188775
0.0023611
0.0028419
0.00331515
0.00376346
0.00416757
0.00450679
0.00476079
0.00492084
0.00492723
-0.000870455
-0.000898112
-0.000827071
-0.000700031
-0.000510926
-0.000259976
5.1004e-05
0.000419018
0.000839531
0.00130626
0.001811
0.00234233
0.00288795
0.00343131
0.00395257
0.00442881
0.00483428
0.00514216
0.00533894
0.00535151
-0.00123668
-0.00127098
-0.00119685
-0.00106251
-0.000860371
-0.000589791
-0.00025185
0.000151105
0.000615078
0.0011342
0.00170046
0.00230319
0.00292923
0.00356102
0.00417638
0.00474795
0.00524336
0.00562651
0.00587589
0.00589931
-0.00167957
-0.00172278
-0.00164614
-0.00150475
-0.00128901
-0.000997102
-0.000629163
-0.000186714
0.000326951
0.000906595
0.00154478
0.00223192
0.00295478
0.0036954
0.00442974
0.00512584
0.00574286
0.00623171
0.00655731
0.00660046
-0.00220699
-0.0022622
-0.00218439
-0.00203714
-0.00180816
-0.0014941
-0.00109389
-0.000608077
-3.91317e-05
0.000608574
0.00132868
0.00211256
0.00294873
0.00382004
0.004702
0.00555898
0.00634025
0.00697928
0.00741731
0.00749827
-0.00282802
-0.00289956
-0.00282291
-0.00267222
-0.00243157
-0.00209553
-0.00166157
-0.00112927
-0.000500311
0.000221837
0.00103216
0.00192386
0.00288861
0.00391243
0.00497335
0.00603487
0.0070376
0.00789311
0.00850052
0.00865798
-0.00355325
-0.00364715
-0.00357541
-0.00342531
-0.00317594
-0.00281909
-0.00235059
-0.00176924
-0.00107636
-0.000274824
0.000631744
0.00163913
0.00274389
0.00393872
0.00520948
0.00652501
0.00782258
0.00899464
0.00986261
0.0101827
-0.00439539
-0.00451978
-0.00445873
-0.00431533
-0.00406184
-0.00368616
-0.00318246
-0.00254942
-0.00178901
-0.00090453
0.000101221
0.00122698
0.00247528
0.00385029
0.00535421
0.00697262
0.00865242
0.0102884
0.0115677
0.0122414
-0.00537329
-0.00553805
-0.00549505
-0.00536666
-0.00511524
-0.00472284
-0.00418211
-0.00349309
-0.00266053
-0.00169021
-0.000585679
0.000654511
0.00203578
0.0035805
0.00531908
0.00727111
0.00942121
0.0117239
0.0136643
0.0151282
-0.00647881
-0.00671655
-0.00670895
-0.00661029
-0.0063696
-0.00596138
-0.00537818
-0.0046243
-0.00371108
-0.00265069
-0.00145099
-0.000112741
0.00137302
0.00304397
0.00497414
0.00723677
0.00990816
0.0131304
0.0160929
0.0193332
-0.00793664
-0.0081161
-0.00814903
-0.00808645
-0.00786798
-0.00744386
-0.00680519
-0.00596714
-0.00495542
-0.00379393
-0.0024982
-0.0010659
0.000536117
0.00225419
0.00428031
0.00673414
0.00978147
0.0140328
0.0182239
0.0250239
-0.00912548
-0.00986872
-0.00992492
-0.00997864
-0.00977196
-0.00927409
-0.00851905
-0.0075473
-0.00640204
-0.00512193
-0.0037441
-0.00230529
-0.000866006
0.000597229
0.00241629
0.00456191
0.00725637
0.0127094
0.0179159
0.0313781
-0.0126378
-0.0108476
-0.0112866
-0.0113802
-0.0113558
-0.0109774
-0.0102472
-0.0092125
-0.00794607
-0.00652193
-0.00500671
-0.00343355
-0.00183046
-8.71166e-05
0.0013896
0.00325881
0.00461558
0.00993347
0.0155833
0.0385578
-0.0119115
-0.0157085
-0.0156968
-0.0162682
-0.015897
-0.014855
-0.013412
-0.011762
-0.0100199
-0.00824829
-0.00652667
-0.00489555
-0.00350124
-0.00244087
-0.00217282
-0.00242186
-0.00471038
0.000738034
0.00457554
0.0503346
-0.0342707
-0.0121913
-0.0131671
-0.0139086
-0.0139703
-0.0135401
-0.0126975
-0.0114722
-0.00997729
-0.00832305
-0.00669315
-0.00501847
-0.00371503
-0.00228542
-0.00184146
-0.000172414
0.00226284
0.0184231
0.0541908
0.140866
)
;

boundaryField
{
    movingWall
    {
        type            zeroGradient;
    }
    fixedWalls
    {
        type            zeroGradient;
    }
    frontAndBack
    {
        type            empty;
    }
}


// ************************************************************************* //
