/*--------------------------------*- C++ -*----------------------------------*\
  =========                 |
  \\      /  F ield         | OpenFOAM: The Open Source CFD Toolbox
   \\    /   O peration     | Website:  https://openfoam.org
    \\  /    A nd           | Version:  10
     \\/     M anipulation  |
\*---------------------------------------------------------------------------*/
FoamFile
{
    format      ascii;
    class       surfaceScalarField;
    location    "4.45";
    object      phi;
}
// * * * * * * * * * * * * * * * * * * * * * * * * * * * * * * * * * * * * * //

dimensions      [0 3 -1 0 0 0 0];

internalField   nonuniform List<scalar> 
760
(
-8.6685e-06
8.66854e-06
-2.81619e-05
1.94934e-05
-5.03494e-05
2.21875e-05
-7.24126e-05
2.20632e-05
-9.34885e-05
2.10759e-05
-0.000113131
1.96428e-05
-0.000130907
1.77755e-05
-0.000146317
1.54105e-05
-0.000158794
1.24771e-05
-0.000167705
8.91113e-06
-0.000172371
4.66511e-06
-0.000172092
-2.78501e-07
-0.000166216
-5.87629e-06
-0.000154231
-1.19849e-05
-0.000135881
-1.83502e-05
-0.000111306
-2.45749e-05
-8.12995e-05
-3.00062e-05
-4.79145e-05
-3.3385e-05
-1.63571e-05
-3.15574e-05
-1.63571e-05
-2.02789e-05
2.89474e-05
-5.65402e-05
5.57547e-05
-9.64565e-05
6.21038e-05
-0.000135718
6.13243e-05
-0.000172779
5.81374e-05
-0.000206738
5.36016e-05
-0.000236779
4.78161e-05
-0.000262062
4.06934e-05
-0.000281703
3.21187e-05
-0.000294778
2.19861e-05
-0.000300308
1.01949e-05
-0.000297469
-3.11751e-06
-0.000285336
-1.80095e-05
-0.000263336
-3.39844e-05
-0.000231265
-5.04209e-05
-0.00018951
-6.63304e-05
-0.0001394
-8.01163e-05
-8.41191e-05
-8.86657e-05
-3.1239e-05
-8.44375e-05
-4.75962e-05
-2.43776e-05
5.3325e-05
-6.67766e-05
9.81537e-05
-0.000113045
0.000108372
-0.000158349
0.000106629
-0.000200985
0.000100773
-0.000239951
9.25685e-05
-0.00027435
8.22145e-05
-0.000303265
6.96089e-05
-0.000325743
5.45964e-05
-0.000340784
3.70275e-05
-0.000347402
1.68127e-05
-0.000344455
-6.06451e-06
-0.000330974
-3.14902e-05
-0.000306205
-5.87535e-05
-0.000269764
-8.68624e-05
-0.000221901
-0.000114193
-0.000163968
-0.000138049
-9.95178e-05
-0.000153116
-3.73221e-05
-0.000146633
-8.49183e-05
-2.60281e-05
7.9353e-05
-7.13838e-05
0.000143509
-0.000120792
0.00015778
-0.000169168
0.000155004
-0.000214786
0.000146391
-0.000256657
0.00013444
-0.000293893
0.00011945
-0.00032558
0.000101296
-0.000350745
7.97613e-05
-0.000368334
5.46172e-05
-0.000377217
2.56959e-05
-0.0003762
-7.08187e-06
-0.000363868
-4.38223e-05
-0.000339084
-8.35377e-05
-0.000300995
-0.000124951
-0.000249442
-0.000165746
-0.000185576
-0.000201916
-0.000113245
-0.000225447
-4.25944e-05
-0.000217283
-0.000127513
-2.73947e-05
0.000106748
-7.54443e-05
0.000191559
-0.000127824
0.000210159
-0.000179208
0.000206388
-0.00022787
0.000195054
-0.000272868
0.000179438
-0.000313362
0.000159944
-0.000348476
0.00013641
-0.000377241
0.000108526
-0.00039855
7.59264e-05
-0.000411121
3.82673e-05
-0.000413517
-4.68655e-06
-0.000403886
-5.34526e-05
-0.000380462
-0.000106962
-0.000341601
-0.000163812
-0.000286306
-0.000221041
-0.000215189
-0.000273032
-0.000132412
-0.000308224
-5.01327e-05
-0.000299563
-0.000177645
-2.90577e-05
0.000135805
-8.03477e-05
0.000242849
-0.000136323
0.000266134
-0.000191358
0.000261423
-0.000243733
0.000247429
-0.000292579
0.000228283
-0.000337141
0.000204507
-0.000376624
0.000175893
-0.000410105
0.000142008
-0.000436455
0.000102276
-0.00045424
5.60518e-05
-0.000461851
2.92406e-06
-0.000456714
-5.85889e-05
-0.000436265
-0.000127412
-0.00039765
-0.000202427
-0.000338459
-0.000280232
-0.00025812
-0.000353371
-0.000160863
-0.000405482
-6.1731e-05
-0.000398694
-0.000239376
-3.11365e-05
0.000166942
-8.63971e-05
0.00029811
-0.000146739
0.000326477
-0.000206168
0.000320852
-0.000262979
0.00030424
-0.000316413
0.000281716
-0.000365854
0.000253948
-0.000410651
0.00022069
-0.000450012
0.000181369
-0.000482881
0.000135145
-0.000507789
8.09604e-05
-0.000522607
1.77418e-05
-0.000524643
-5.65535e-05
-0.000509869
-0.000142185
-0.000473734
-0.000238563
-0.000411529
-0.000342436
-0.000320319
-0.000444582
-0.000203514
-0.000522286
-8.0051e-05
-0.000522158
-0.000319427
-3.36629e-05
0.000200605
-9.36773e-05
0.000358124
-0.000159167
0.000391966
-0.000223689
0.000385375
-0.000285577
0.000366127
-0.000344226
0.000340366
-0.000399231
0.000308953
-0.000450181
0.00027164
-0.000496531
0.000227719
-0.00053744
0.000176054
-0.000571536
0.000115057
-0.000596577
4.27824e-05
-0.000609434
-4.36966e-05
-0.000604684
-0.000146934
-0.000575437
-0.00026781
-0.000513391
-0.000404482
-0.000411195
-0.000546778
-0.000269153
-0.000664329
-0.000110588
-0.000680722
-0.000430016
-3.66878e-05
0.000237293
-0.000102296
0.000423732
-0.000173701
0.000463371
-0.000243935
0.000455608
-0.000311391
0.000433584
-0.000375688
0.000404663
-0.000436716
0.000369981
-0.000494426
0.000329349
-0.00054869
0.000281983
-0.000599107
0.000226471
-0.000644706
0.000160656
-0.000683466
8.15425e-05
-0.000712217
-1.49458e-05
-0.000724244
-0.000134907
-0.000709875
-0.000282179
-0.000655645
-0.000458713
-0.000546534
-0.000655888
-0.00037508
-0.000835782
-0.000165917
-0.000889885
-0.000595933
-4.03295e-05
0.000277622
-0.000112479
0.000495882
-0.000190564
0.000541455
-0.000267009
0.000532054
-0.00034032
0.000506895
-0.000410412
0.000474755
-0.000477572
0.000437141
-0.000542252
0.00039403
-0.000604947
0.000344678
-0.00066601
0.000287534
-0.000725336
0.000219982
-0.000781771
0.000137977
-0.000832605
3.58885e-05
-0.000871316
-9.61964e-05
-0.000885411
-0.000268084
-0.000855155
-0.000488969
-0.000753634
-0.000757409
-0.000557384
-0.00103203
-0.000276559
-0.00117071
-0.000872492
-4.48304e-05
0.000322453
-0.000124672
0.000575724
-0.00021021
0.000626993
-0.000293216
0.00061506
-0.000372388
0.000586067
-0.000448033
0.0005504
-0.000520938
0.000510045
-0.000592186
0.000465278
-0.000663103
0.000415594
-0.000735155
0.000359586
-0.000809716
0.000294543
-0.000887519
0.00021578
-0.000967336
0.000115706
-0.00104602
-1.75135e-05
-0.00111015
-0.000203957
-0.00113526
-0.000463855
-0.00107934
-0.000813326
-0.000888249
-0.00122313
-0.000515194
-0.00154377
-0.00138769
-5.06603e-05
0.000373113
-0.00013969
0.000664753
-0.000233475
0.000720778
-0.00032318
0.000704765
-0.000407855
0.000670742
-0.000488322
0.000630867
-0.000565947
0.000587671
-0.000642525
0.000541857
-0.000720347
0.000493416
-0.000802305
0.000441544
-0.000891939
0.000384177
-0.000993215
0.000317056
-0.00110955
0.000232041
-0.00124186
0.000114793
-0.00138629
-5.95239e-05
-0.00152117
-0.000328976
-0.00158998
-0.000744516
-0.00147473
-0.00133837
-0.00097617
-0.00204233
-0.00236386
-5.87211e-05
0.000431834
-0.000158983
0.000765015
-0.000261793
0.000823589
-0.000358023
0.000800995
-0.000447362
0.000760081
-0.000531325
0.00071483
-0.000611912
0.000668258
-0.000691569
0.000621514
-0.000773471
0.000575318
-0.000861948
0.000530021
-0.000963047
0.000485276
-0.00108516
0.000439173
-0.00123946
0.000386341
-0.00143912
0.000314451
-0.00169734
0.000198692
-0.00201488
-1.14365e-05
-0.00231438
-0.000445008
-0.00233229
-0.00132047
-0.00161344
-0.00276117
-0.0039773
-7.10493e-05
0.000502883
-0.00018546
0.000879426
-0.000297519
0.000935647
-0.000399196
0.000902672
-0.000491736
0.000852621
-0.000577413
0.000800506
-0.000658622
0.000749467
-0.000738193
0.000701085
-0.000819902
0.000657028
-0.00090916
0.000619278
-0.00101425
0.000590365
-0.00114836
0.000573286
-0.00133263
0.000570606
-0.00159831
0.000580135
-0.00198384
0.000584218
-0.00249649
0.000501215
-0.00301269
7.11913e-05
-0.00306677
-0.00126639
-0.00201032
-0.00381762
-0.00598762
-8.65248e-05
0.000589408
-0.000218789
0.00101169
-0.000342446
0.0010593
-0.000451136
0.00101136
-0.00054564
0.000947125
-0.000629852
0.000884717
-0.000707557
0.000827172
-0.000782103
0.000775631
-0.000856959
0.000731884
-0.000936831
0.000699151
-0.00103002
0.000683558
-0.00115165
0.000694907
-0.00132967
0.000748632
-0.00160785
0.000858309
-0.00204056
0.00101693
-0.0026154
0.00107606
-0.00315826
0.000614056
-0.00309335
-0.00133131
-0.00190727
-0.0050037
-0.00789489
-0.00014999
0.000739399
-0.000294822
0.00115652
-0.000412029
0.00117651
-0.000509736
0.00110907
-0.000597172
0.00103456
-0.000677195
0.00096474
-0.000751127
0.000901104
-0.000819745
0.000844249
-0.000884456
0.000796595
-0.000947379
0.000762074
-0.00101357
0.000749753
-0.00109276
0.00077409
-0.00120756
0.000863433
-0.00138521
0.00103596
-0.00167248
0.0013042
-0.00201699
0.00142056
-0.00233562
0.000932682
-0.00228352
-0.0013834
-0.00150199
-0.00578523
-0.00939688
-0.000101428
0.000840826
-0.000311112
0.00136621
-0.000474031
0.00133943
-0.000597016
0.00123205
-0.000689201
0.00112675
-0.000759737
0.00103528
-0.000814985
0.000956352
-0.000858135
0.000887398
-0.000890461
0.000828922
-0.00091027
0.000781883
-0.000915278
0.000754761
-0.000899857
0.000758669
-0.000865409
0.000828985
-0.000800357
0.000970909
-0.000731788
0.00123564
-0.00067238
0.00136115
-0.000691785
0.000952088
-0.000832572
-0.00124261
-0.000670749
-0.00594705
-0.0100676
-0.00038969
0.00123052
-0.000495531
0.00147205
-0.000597122
0.00144102
-0.000690767
0.0013257
-0.000741615
0.00117759
-0.000758469
0.00105213
-0.000750543
0.000948426
-0.000721503
0.000858359
-0.000676922
0.00078434
-0.000612739
0.0007177
-0.000529044
0.000671066
-0.000408675
0.0006383
-0.000234735
0.000655044
2.45502e-05
0.000711624
0.000416938
0.000843247
0.000878611
0.000899481
0.00138637
0.000444326
0.00131483
-0.00117107
0.000759217
-0.00539144
-0.00930841
-0.0013316
0.00256211
-0.00128349
0.00142394
-0.00103999
0.00119753
-0.000692064
0.00097777
-0.000323441
0.000808972
4.36617e-05
0.000685027
0.000395326
0.000596761
0.000726036
0.000527649
0.00103857
0.000471802
0.00133048
0.000425796
0.00161277
0.000388771
0.0018915
0.000359577
0.00219901
0.000347533
0.00256379
0.000346841
0.0030771
0.000329934
0.00371405
0.000262535
0.00430687
-0.000148493
0.0042837
-0.0011479
0.0026887
-0.00379644
-0.00661971
0.00256211
0.00398605
0.00518358
0.00616135
0.00697032
0.00765535
0.00825211
0.00877976
0.00925156
0.00967735
0.0100661
0.0104257
0.0107732
0.0111201
0.01145
0.0117125
0.0115641
0.0104162
0.00661971
)
;

boundaryField
{
    movingWall
    {
        type            calculated;
        value           uniform 0;
    }
    fixedWalls
    {
        type            calculated;
        value           uniform 0;
    }
    frontAndBack
    {
        type            empty;
        value           nonuniform List<scalar> 0();
    }
}


// ************************************************************************* //
