/*--------------------------------*- C++ -*----------------------------------*\
  =========                 |
  \\      /  F ield         | OpenFOAM: The Open Source CFD Toolbox
   \\    /   O peration     | Website:  https://openfoam.org
    \\  /    A nd           | Version:  10
     \\/     M anipulation  |
\*---------------------------------------------------------------------------*/
FoamFile
{
    format      ascii;
    class       volVectorField;
    location    "4.45";
    object      U;
}
// * * * * * * * * * * * * * * * * * * * * * * * * * * * * * * * * * * * * * //

dimensions      [0 1 -1 0 0 0 0];

internalField   nonuniform List<vector> 
400
(
(-9.83629e-05 9.38005e-05 0)
(-0.000808012 0.000313591 0)
(-0.00197298 0.000372105 0)
(-0.00307951 0.000375029 0)
(-0.00416256 0.00036368 0)
(-0.00518554 0.000346229 0)
(-0.0061254 0.00032206 0)
(-0.00695959 0.000289023 0)
(-0.00766158 0.000244904 0)
(-0.00820128 0.000187666 0)
(-0.00854571 0.000115756 0)
(-0.00866018 2.89612e-05 0)
(-0.00851031 -7.397e-05 0)
(-0.00806618 -0.00018996 0)
(-0.00730778 -0.000313969 0)
(-0.00622968 -0.000437845 0)
(-0.00485431 -0.000547851 0)
(-0.00326551 -0.000617749 0)
(-0.00146182 -0.000579376 0)
(-0.000244652 -0.00026142 0)
(-0.000333732 0.000813822 0)
(-0.00175513 0.0016973 0)
(-0.00384335 0.00191406 0)
(-0.00582852 0.00189832 0)
(-0.00774605 0.0018079 0)
(-0.00953137 0.00167734 0)
(-0.0111398 0.0015086 0)
(-0.012531 0.00129745 0)
(-0.0136621 0.00103895 0)
(-0.0144878 0.000728678 0)
(-0.0149602 0.00036342 0)
(-0.015034 -5.85021e-05 0)
(-0.0146644 -0.00053143 0)
(-0.013813 -0.00104304 0)
(-0.0124591 -0.00157253 0)
(-0.0106034 -0.0020873 0)
(-0.00828945 -0.00253432 0)
(-0.00564267 -0.00281094 0)
(-0.00267683 -0.00266455 0)
(-0.000546915 -0.00143786 0)
(-0.000413859 0.00204695 0)
(-0.00209398 0.003826 0)
(-0.00451911 0.00423898 0)
(-0.00681463 0.00417712 0)
(-0.00902417 0.00395203 0)
(-0.0110755 0.00363408 0)
(-0.0129191 0.00323092 0)
(-0.014511 0.00273797 0)
(-0.0158046 0.0021487 0)
(-0.0167511 0.00145711 0)
(-0.017301 0.000659368 0)
(-0.0174003 -0.000244596 0)
(-0.0169954 -0.00124465 0)
(-0.0160422 -0.00231641 0)
(-0.0145107 -0.00341807 0)
(-0.0123928 -0.00448379 0)
(-0.00972864 -0.00540783 0)
(-0.00665606 -0.00598359 0)
(-0.0031858 -0.00571284 0)
(-0.000663431 -0.00327738 0)
(-0.000440113 0.00330295 0)
(-0.00223751 0.00601497 0)
(-0.00483082 0.00662463 0)
(-0.00728065 0.00651205 0)
(-0.00964197 0.00615099 0)
(-0.0118408 0.00564754 0)
(-0.0138281 0.00501414 0)
(-0.0155604 0.0042451 0)
(-0.0169908 0.00333124 0)
(-0.0180688 0.00226326 0)
(-0.0187402 0.00103469 0)
(-0.0189467 -0.000353624 0)
(-0.0186217 -0.00189329 0)
(-0.0177005 -0.00355228 0)
(-0.0161313 -0.00527138 0)
(-0.0138828 -0.0069519 0)
(-0.0109772 -0.00842829 0)
(-0.00755948 -0.00937202 0)
(-0.00363567 -0.00900206 0)
(-0.000758348 -0.00525481 0)
(-0.000459113 0.00463504 0)
(-0.00235944 0.00834296 0)
(-0.00510993 0.00916116 0)
(-0.00770817 0.00899788 0)
(-0.010221 0.00849999 0)
(-0.012574 0.00781125 0)
(-0.0147208 0.00694906 0)
(-0.0166202 0.00590609 0)
(-0.0182266 0.00466924 0)
(-0.0194885 0.0032237 0)
(-0.0203467 0.00155647 0)
(-0.0207337 -0.000338245 0)
(-0.0205664 -0.00245654 0)
(-0.0197528 -0.0047648 0)
(-0.0182057 -0.00719233 0)
(-0.015851 -0.00960835 0)
(-0.012671 -0.0117761 0)
(-0.00881098 -0.0132104 0)
(-0.00427386 -0.012781 0)
(-0.000898107 -0.00754455 0)
(-0.000482775 0.00604264 0)
(-0.00250705 0.0108193 0)
(-0.00544687 0.0118624 0)
(-0.00822513 0.011651 0)
(-0.0109222 0.0110188 0)
(-0.0134639 0.0101501 0)
(-0.0158081 0.00906781 0)
(-0.0179182 0.00776234 0)
(-0.0197519 0.00621511 0)
(-0.0212584 0.00440255 0)
(-0.0223748 0.00229961 0)
(-0.0230263 -0.000114937 0)
(-0.0231079 -0.00284571 0)
(-0.0224902 -0.00587704 0)
(-0.0210357 -0.00913503 0)
(-0.0186023 -0.01246 0)
(-0.0150993 -0.0155316 0)
(-0.0106479 -0.0176597 0)
(-0.00524268 -0.0172527 0)
(-0.00112321 -0.0102952 0)
(-0.000513195 0.00754269 0)
(-0.00269053 0.0134744 0)
(-0.0058612 0.0147614 0)
(-0.00885697 0.0145043 0)
(-0.0117747 0.0137408 0)
(-0.0145413 0.0126997 0)
(-0.0171213 0.0114102 0)
(-0.0194855 0.00986052 0)
(-0.0215987 0.00802528 0)
(-0.0234155 0.00586877 0)
(-0.0248746 0.00334765 0)
(-0.025888 0.000416675 0)
(-0.0263366 -0.00295496 0)
(-0.0260525 -0.00678637 0)
(-0.0248203 -0.0110232 0)
(-0.0223966 -0.0154935 0)
(-0.0185626 -0.0197858 0)
(-0.013356 -0.0229425 0)
(-0.00674356 -0.0227226 0)
(-0.00150081 -0.0137594 0)
(-0.000550723 0.0091573 0)
(-0.0029128 0.0163469 0)
(-0.00635816 0.0178979 0)
(-0.00960785 0.0175951 0)
(-0.0127796 0.0167013 0)
(-0.0158022 0.0154953 0)
(-0.0186499 0.0140147 0)
(-0.0213053 0.0122464 0)
(-0.0237457 0.0101576 0)
(-0.0259378 0.00769829 0)
(-0.0278282 0.00480101 0)
(-0.0293297 0.00138593 0)
(-0.0303123 -0.00263129 0)
(-0.0305648 -0.00732586 0)
(-0.0297818 -0.0127043 0)
(-0.027573 -0.0186232 0)
(-0.0235087 -0.0245948 0)
(-0.0174127 -0.0293257 0)
(-0.00917303 -0.0296293 0)
(-0.00218223 -0.0183689 0)
(-0.000596373 0.0109099 0)
(-0.00317811 0.0194773 0)
(-0.00694384 0.021311 0)
(-0.0104811 0.0209567 0)
(-0.0139341 0.0199292 0)
(-0.017235 0.0185643 0)
(-0.0203717 0.0169109 0)
(-0.0233435 0.014957 0)
(-0.0261476 0.0126642 0)
(-0.0287729 0.00996719 0)
(-0.0311874 0.00677021 0)
(-0.0333206 0.00294544 0)
(-0.0350496 -0.00166467 0)
(-0.0361349 -0.00722951 0)
(-0.0361764 -0.0138887 0)
(-0.0345943 -0.0216093 0)
(-0.030638 -0.0298957 0)
(-0.023679 -0.0370707 0)
(-0.0133969 -0.0386067 0)
(-0.00353599 -0.0249345 0)
(-0.000652987 0.0128279 0)
(-0.00349569 0.0229099 0)
(-0.00763101 0.0250389 0)
(-0.0114861 0.0246174 0)
(-0.0152393 0.0234447 0)
(-0.0188282 0.0219219 0)
(-0.0222588 0.020114 0)
(-0.0255531 0.0180142 0)
(-0.0287366 0.0155827 0)
(-0.0318329 0.0127429 0)
(-0.0348511 0.00937141 0)
(-0.0377661 0.00528565 0)
(-0.0404906 0.000232925 0)
(-0.0428065 -0.00609002 0)
(-0.0442594 -0.0140663 0)
(-0.0440652 -0.0239163 0)
(-0.041046 -0.0353187 0)
(-0.0337806 -0.0462633 0)
(-0.0213953 -0.0505172 0)
(-0.00648874 -0.0351443 0)
(-0.000726876 0.0149469 0)
(-0.00388399 0.0266963 0)
(-0.00844458 0.0291201 0)
(-0.0126431 0.0285991 0)
(-0.0167043 0.0272558 0)
(-0.0205741 0.0255667 0)
(-0.0242812 0.0236181 0)
(-0.0278762 0.0214147 0)
(-0.0314206 0.018923 0)
(-0.0349861 0.0160653 0)
(-0.0386471 0.0127016 0)
(-0.0424629 0.0086018 0)
(-0.0464343 0.00341104 0)
(-0.0504728 -0.00337553 0)
(-0.0541895 -0.0124255 0)
(-0.0566987 -0.0244788 0)
(-0.0564045 -0.039747 0)
(-0.050732 -0.0562412 0)
(-0.0374182 -0.0662497 0)
(-0.0132786 -0.0527267 0)
(-0.000831166 0.0173202 0)
(-0.00437777 0.0309018 0)
(-0.0094296 0.0335945 0)
(-0.0139908 0.0329151 0)
(-0.018353 0.0313546 0)
(-0.0224748 0.0294753 0)
(-0.026413 0.0273891 0)
(-0.0302501 0.025119 0)
(-0.0340882 0.0226495 0)
(-0.0380571 0.0199205 0)
(-0.042319 0.0168042 0)
(-0.0470655 0.0130619 0)
(-0.0524924 0.008274 0)
(-0.0587372 0.00173916 0)
(-0.0657698 -0.00757324 0)
(-0.0730552 -0.0211263 0)
(-0.078849 -0.0403696 0)
(-0.0790994 -0.0644675 0)
(-0.0679592 -0.0865743 0)
(-0.02721 -0.0852982 0)
(-0.000993165 0.0200294 0)
(-0.00504141 0.0356033 0)
(-0.0106637 0.038483 0)
(-0.0155953 0.0375473 0)
(-0.0202309 0.0357031 0)
(-0.0245489 0.0335954 0)
(-0.02864 0.0313595 0)
(-0.032618 0.0290424 0)
(-0.0366214 0.0266613 0)
(-0.0408339 0.0241985 0)
(-0.0455096 0.0215803 0)
(-0.0510037 0.0186273 0)
(-0.0578009 0.0149551 0)
(-0.0665201 0.00980111 0)
(-0.077918 0.00182256 0)
(-0.0926799 -0.011162 0)
(-0.109413 -0.0325008 0)
(-0.12114 -0.066415 0)
(-0.112723 -0.113259 0)
(-0.0436146 -0.146509 0)
(-0.00127393 0.0232367 0)
(-0.00601763 0.041053 0)
(-0.0122889 0.0440345 0)
(-0.0175526 0.0427167 0)
(-0.022395 0.0404251 0)
(-0.0268273 0.0379448 0)
(-0.0309682 0.0354653 0)
(-0.0349499 0.0330647 0)
(-0.0389332 0.0307958 0)
(-0.0431389 0.0287067 0)
(-0.0478926 0.0268442 0)
(-0.053704 0.0252145 0)
(-0.061393 0.0236884 0)
(-0.0722284 0.0217923 0)
(-0.0881255 0.0183469 0)
(-0.11129 0.0102708 0)
(-0.140397 -0.0103868 0)
(-0.161508 -0.0627077 0)
(-0.14818 -0.158456 0)
(-0.0446447 -0.245885 0)
(-0.00167468 0.0272687 0)
(-0.00720744 0.0464733 0)
(-0.0143582 0.0490105 0)
(-0.0200258 0.046939 0)
(-0.0250851 0.0442714 0)
(-0.0295118 0.0416427 0)
(-0.0335167 0.0391358 0)
(-0.0372795 0.0367891 0)
(-0.0409614 0.0346846 0)
(-0.0447503 0.0329601 0)
(-0.0489406 0.0318385 0)
(-0.0540636 0.0316358 0)
(-0.0610983 0.0327519 0)
(-0.071735 0.0354055 0)
(-0.0888667 0.0390193 0)
(-0.11567 0.0384623 0)
(-0.150301 0.0168653 0)
(-0.167989 -0.0664267 0)
(-0.146953 -0.226608 0)
(-0.0331086 -0.356774 0)
(-0.00366078 0.031028 0)
(-0.0112554 0.055661 0)
(-0.0179612 0.0579388 0)
(-0.0232551 0.0554039 0)
(-0.0278244 0.0515596 0)
(-0.0319931 0.0477784 0)
(-0.0358122 0.0443265 0)
(-0.0393386 0.0413133 0)
(-0.0426219 0.0388469 0)
(-0.0457405 0.0371101 0)
(-0.0488397 0.0364778 0)
(-0.0522217 0.0376162 0)
(-0.0566038 0.0416636 0)
(-0.0631185 0.0495922 0)
(-0.0741522 0.0613165 0)
(-0.0912565 0.0665792 0)
(-0.116203 0.0416378 0)
(-0.122161 -0.0719326 0)
(-0.113244 -0.284195 0)
(-0.0248785 -0.4481 0)
(-0.00135517 0.0451123 0)
(-0.00929208 0.0583916 0)
(-0.0210082 0.0580051 0)
(-0.026925 0.0533699 0)
(-0.0324868 0.0498934 0)
(-0.036458 0.0469343 0)
(-0.0395415 0.0443075 0)
(-0.0419587 0.0418976 0)
(-0.0438131 0.0398168 0)
(-0.0450853 0.038244 0)
(-0.0456695 0.0377092 0)
(-0.0453126 0.0389319 0)
(-0.0440385 0.0436355 0)
(-0.0409891 0.0525269 0)
(-0.0383305 0.0668454 0)
(-0.0322567 0.0729072 0)
(-0.0392578 0.0479908 0)
(-0.0336788 -0.0724254 0)
(-0.0560199 -0.308881 0)
(-0.000470473 -0.509507 0)
(-0.0117784 0.034757 0)
(-0.0251715 0.0809499 0)
(-0.0258307 0.0786689 0)
(-0.0332191 0.0732544 0)
(-0.0364006 0.0659185 0)
(-0.0380184 0.0593265 0)
(-0.038069 0.0536087 0)
(-0.0370325 0.0487163 0)
(-0.0351415 0.0445975 0)
(-0.03233 0.0411932 0)
(-0.0287599 0.0388027 0)
(-0.0235097 0.0378654 0)
(-0.0171188 0.0401739 0)
(-0.0053122 0.0458179 0)
(0.00774287 0.0583863 0)
(0.0354029 0.0650791 0)
(0.0478935 0.0501308 0)
(0.0854187 -0.0492369 0)
(0.0365675 -0.292603 0)
(0.0528023 -0.511379 0)
(-0.0760835 0.0982881 0)
(-0.0614938 0.0613758 0)
(-0.0631567 0.0606708 0)
(-0.0426026 0.0539597 0)
(-0.0257189 0.0470111 0)
(-0.00672581 0.0416788 0)
(0.01109 0.0376776 0)
(0.0283908 0.0341091 0)
(0.0441422 0.0313036 0)
(0.0598169 0.028421 0)
(0.0733905 0.0265204 0)
(0.088961 0.0245726 0)
(0.100102 0.0242991 0)
(0.122708 0.025 0)
(0.131492 0.0247539 0)
(0.178748 0.0225054 0)
(0.182088 -0.0086097 0)
(0.238096 -0.074358 0)
(0.171349 -0.264808 0)
(0.128213 -0.445803 0)
(0.120179 0.140236 0)
(0.153008 0.0861803 0)
(0.231376 0.0638989 0)
(0.286604 0.0487194 0)
(0.329002 0.038197 0)
(0.367384 0.0305266 0)
(0.397145 0.0251195 0)
(0.428441 0.0213209 0)
(0.448849 0.0181396 0)
(0.47748 0.0161322 0)
(0.489358 0.0140224 0)
(0.519393 0.0127684 0)
(0.522082 0.0116358 0)
(0.556991 0.0106347 0)
(0.549785 0.0100426 0)
(0.58818 0.00653662 0)
(0.562208 -0.00283834 0)
(0.574617 -0.0264701 0)
(0.441271 -0.0796205 0)
(0.277928 -0.158815 0)
)
;

boundaryField
{
    movingWall
    {
        type            fixedValue;
        value           uniform (1 0 0);
    }
    fixedWalls
    {
        type            noSlip;
    }
    frontAndBack
    {
        type            empty;
    }
}


// ************************************************************************* //
