/*--------------------------------*- C++ -*----------------------------------*\
  =========                 |
  \\      /  F ield         | OpenFOAM: The Open Source CFD Toolbox
   \\    /   O peration     | Website:  https://openfoam.org
    \\  /    A nd           | Version:  10
     \\/     M anipulation  |
\*---------------------------------------------------------------------------*/
FoamFile
{
    format      ascii;
    class       volVectorField;
    location    "9.175";
    object      U;
}
// * * * * * * * * * * * * * * * * * * * * * * * * * * * * * * * * * * * * * //

dimensions      [0 1 -1 0 0 0 0];

internalField   nonuniform List<vector> 
400
(
(-0.000167506 0.000145063 0)
(-0.00125807 0.000463984 0)
(-0.00310556 0.000580106 0)
(-0.00500791 0.000620259 0)
(-0.00698877 0.000644262 0)
(-0.00901112 0.000671261 0)
(-0.0110645 0.000700496 0)
(-0.0131278 0.000723604 0)
(-0.0151528 0.000728228 0)
(-0.0170569 0.000697713 0)
(-0.0187151 0.000611277 0)
(-0.0199521 0.000446322 0)
(-0.0205461 0.000184194 0)
(-0.0202388 -0.000194823 0)
(-0.0187856 -0.000668902 0)
(-0.016045 -0.00117268 0)
(-0.0121229 -0.00157498 0)
(-0.00753705 -0.00169724 0)
(-0.00277918 -0.0013631 0)
(-0.000193069 -0.00038471 0)
(-0.000549821 0.00128588 0)
(-0.00285959 0.0026817 0)
(-0.00640319 0.00321002 0)
(-0.0100548 0.00339809 0)
(-0.0138178 0.00347862 0)
(-0.0176031 0.0035275 0)
(-0.0213611 0.00354433 0)
(-0.0250294 0.00349676 0)
(-0.0285066 0.00333532 0)
(-0.0316415 0.00299599 0)
(-0.034222 0.00240378 0)
(-0.0359689 0.00148035 0)
(-0.0365584 0.000159442 0)
(-0.0356194 -0.00157203 0)
(-0.0328049 -0.00361089 0)
(-0.0279389 -0.00568641 0)
(-0.021211 -0.00729942 0)
(-0.0134129 -0.00776868 0)
(-0.00536367 -0.00642838 0)
(-0.000675694 -0.00254241 0)
(-0.000723816 0.00335483 0)
(-0.00361647 0.00632889 0)
(-0.0079661 0.00745253 0)
(-0.0124174 0.00784009 0)
(-0.0169756 0.00796691 0)
(-0.021532 0.00798798 0)
(-0.0260263 0.00790692 0)
(-0.0303873 0.00766277 0)
(-0.0345043 0.00715972 0)
(-0.0382132 0.00627404 0)
(-0.0412847 0.00486165 0)
(-0.0434171 0.00277509 0)
(-0.0442288 -0.000104305 0)
(-0.0432594 -0.00378423 0)
(-0.0400467 -0.00808548 0)
(-0.0342721 -0.0124694 0)
(-0.0260398 -0.0159163 0)
(-0.0162926 -0.0169356 0)
(-0.00620806 -0.0140677 0)
(-0.000626116 -0.00592635 0)
(-0.000782172 0.00558029 0)
(-0.00392005 0.0102541 0)
(-0.00862754 0.0119914 0)
(-0.0134278 0.012567 0)
(-0.0183418 0.0127287 0)
(-0.0232638 0.0127178 0)
(-0.0281462 0.012545 0)
(-0.0329351 0.0121239 0)
(-0.0375407 0.011315 0)
(-0.0418208 0.00993345 0)
(-0.0455582 0.00775534 0)
(-0.0484404 0.00454051 0)
(-0.0500345 8.62852e-05 0)
(-0.0497672 -0.00568318 0)
(-0.0469398 -0.012584 0)
(-0.0408781 -0.0198381 0)
(-0.031328 -0.0257798 0)
(-0.0192599 -0.0276779 0)
(-0.00651893 -0.0227091 0)
(-0.000198985 -0.00914048 0)
(-0.000783712 0.00790147 0)
(-0.00399783 0.0143697 0)
(-0.00884844 0.0167524 0)
(-0.0137996 0.0175312 0)
(-0.0188913 0.0177502 0)
(-0.0240344 0.017747 0)
(-0.0292101 0.0175458 0)
(-0.034402 0.0170408 0)
(-0.0395662 0.0160523 0)
(-0.044611 0.0143321 0)
(-0.0493633 0.0115614 0)
(-0.0535219 0.00736452 0)
(-0.0566039 0.00137083 0)
(-0.0579031 -0.00667305 0)
(-0.0563874 -0.0167265 0)
(-0.0507632 -0.0278915 0)
(-0.0399278 -0.0377307 0)
(-0.0243719 -0.0414658 0)
(-0.00698645 -0.0333991 0)
(0.000602005 -0.0122021 0)
(-0.000758922 0.0102241 0)
(-0.00396781 0.0185444 0)
(-0.00885999 0.0216046 0)
(-0.0138733 0.0226145 0)
(-0.0190651 0.0229338 0)
(-0.0243711 0.0230103 0)
(-0.0298131 0.0228931 0)
(-0.0354291 0.0224685 0)
(-0.0412452 0.0215264 0)
(-0.0472552 0.0197591 0)
(-0.0533798 0.0167423 0)
(-0.0593936 0.0119251 0)
(-0.0648366 0.00466379 0)
(-0.0689491 -0.005663 0)
(-0.0703564 -0.0193833 0)
(-0.0668008 -0.0359427 0)
(-0.0553431 -0.0523151 0)
(-0.0346901 -0.0603779 0)
(-0.00900918 -0.0478014 0)
(0.0017585 -0.015062 0)
(-0.000719288 0.0124983 0)
(-0.00387852 0.0227061 0)
(-0.0087554 0.0264751 0)
(-0.0137753 0.0277482 0)
(-0.0190107 0.0282196 0)
(-0.0244245 0.0284633 0)
(-0.0300867 0.0285707 0)
(-0.0361045 0.0284395 0)
(-0.0425999 0.0278514 0)
(-0.0496964 0.0264593 0)
(-0.0574846 0.0237457 0)
(-0.0659497 0.0189778 0)
(-0.0748666 0.0111806 0)
(-0.0836309 -0.000818383 0)
(-0.0907476 -0.0182383 0)
(-0.0925187 -0.0420801 0)
(-0.0822316 -0.0696776 0)
(-0.0550642 -0.0876044 0)
(-0.0169693 -0.0696464 0)
(0.00254171 -0.0191295 0)
(-0.000667846 0.0146949 0)
(-0.00374561 0.0268128 0)
(-0.00856288 0.0313166 0)
(-0.0135342 0.0328781 0)
(-0.018742 0.0335458 0)
(-0.0241749 0.03404 0)
(-0.0299519 0.0345158 0)
(-0.0362576 0.0349111 0)
(-0.0433324 0.0350394 0)
(-0.0514773 0.0345686 0)
(-0.0610465 0.0329558 0)
(-0.0724238 0.029366 0)
(-0.0859647 0.0225718 0)
(-0.101766 0.0106485 0)
(-0.118553 -0.00974394 0)
(-0.129746 -0.0430813 0)
(-0.122307 -0.0893284 0)
(-0.0892019 -0.125751 0)
(-0.0398431 -0.10516 0)
(6.67162e-05 -0.0296715 0)
(-0.000606594 0.0167895 0)
(-0.0035779 0.030829 0)
(-0.00829442 0.0360801 0)
(-0.0131513 0.0379351 0)
(-0.0182342 0.038818 0)
(-0.02355 0.0396182 0)
(-0.0292596 0.0405797 0)
(-0.0356194 0.0417167 0)
(-0.0429889 0.0429312 0)
(-0.051873 0.0439996 0)
(-0.0629757 0.0445094 0)
(-0.0772785 0.0437707 0)
(-0.0961713 0.0405741 0)
(-0.120984 0.0319471 0)
(-0.149544 0.0102826 0)
(-0.170474 -0.0366113 0)
(-0.165923 -0.110429 0)
(-0.133434 -0.17164 0)
(-0.0825978 -0.1581 0)
(-0.0110509 -0.0571695 0)
(-0.000540908 0.0187648 0)
(-0.00339354 0.0347258 0)
(-0.00797569 0.0407134 0)
(-0.0126442 0.0428326 0)
(-0.0174806 0.0439052 0)
(-0.0224967 0.0450125 0)
(-0.0278773 0.0465126 0)
(-0.0339267 0.0485349 0)
(-0.0410918 0.0511371 0)
(-0.0500426 0.0543276 0)
(-0.0617909 0.0580464 0)
(-0.0778563 0.0620535 0)
(-0.100541 0.0652299 0)
(-0.132006 0.0625365 0)
(-0.168405 0.0390995 0)
(-0.19322 -0.0255521 0)
(-0.191047 -0.129232 0)
(-0.168476 -0.215315 0)
(-0.125528 -0.225592 0)
(-0.0321526 -0.117303 0)
(-0.000482425 0.0206194 0)
(-0.00323014 0.0384873 0)
(-0.00766433 0.0451592 0)
(-0.0120728 0.0474611 0)
(-0.0165286 0.0486342 0)
(-0.0210303 0.0499689 0)
(-0.0257589 0.0519514 0)
(-0.0310178 0.0548495 0)
(-0.0372602 0.0589282 0)
(-0.0451869 0.0645314 0)
(-0.0558997 0.0721254 0)
(-0.0710112 0.0820264 0)
(-0.0926179 0.0926332 0)
(-0.12244 0.095271 0)
(-0.155005 0.0679846 0)
(-0.175028 -0.012186 0)
(-0.175013 -0.136867 0)
(-0.163233 -0.247621 0)
(-0.136142 -0.299053 0)
(-0.048961 -0.218154 0)
(-0.000455366 0.0223925 0)
(-0.00316311 0.0421584 0)
(-0.00747374 0.049429 0)
(-0.0115618 0.0517756 0)
(-0.0155057 0.0528789 0)
(-0.0192765 0.0542538 0)
(-0.0230224 0.0565134 0)
(-0.0269844 0.0600537 0)
(-0.0315056 0.0653361 0)
(-0.0370916 0.0730163 0)
(-0.0444938 0.0839923 0)
(-0.0546561 0.0988124 0)
(-0.0683645 0.114804 0)
(-0.0865285 0.119756 0)
(-0.104871 0.0885962 0)
(-0.11563 -0.001103 0)
(-0.118562 -0.132763 0)
(-0.1172 -0.259037 0)
(-0.114756 -0.348306 0)
(-0.0455904 -0.317895 0)
(-0.000490885 0.0241367 0)
(-0.00327954 0.0456938 0)
(-0.00754963 0.0533199 0)
(-0.0113043 0.0554635 0)
(-0.0146462 0.0562747 0)
(-0.0175067 0.057449 0)
(-0.0199942 0.0596686 0)
(-0.0222472 0.0634012 0)
(-0.024413 0.0691996 0)
(-0.0266533 0.0778299 0)
(-0.0291323 0.0902716 0)
(-0.0318485 0.106871 0)
(-0.0344679 0.124409 0)
(-0.0374481 0.129245 0)
(-0.0405942 0.0973843 0)
(-0.0422421 0.00553766 0)
(-0.0499495 -0.120514 0)
(-0.0599002 -0.247581 0)
(-0.0831145 -0.363999 0)
(-0.0314215 -0.385444 0)
(-0.00069859 0.0261859 0)
(-0.00388281 0.0497454 0)
(-0.00824151 0.0576467 0)
(-0.0115721 0.0593645 0)
(-0.0141732 0.0594813 0)
(-0.0159981 0.0599596 0)
(-0.0170986 0.0615652 0)
(-0.0174892 0.0647854 0)
(-0.0171264 0.070146 0)
(-0.0158328 0.078311 0)
(-0.0132903 0.0900688 0)
(-0.00866092 0.105397 0)
(-0.00129953 0.121395 0)
(0.00925133 0.125461 0)
(0.0173243 0.0961214 0)
(0.0225444 0.0110015 0)
(0.00757838 -0.103984 0)
(-0.0126096 -0.222531 0)
(-0.0576471 -0.362182 0)
(-0.0201827 -0.434213 0)
(-0.00103984 0.0287255 0)
(-0.004654 0.0529774 0)
(-0.00945199 0.060094 0)
(-0.0126438 0.0606224 0)
(-0.0147175 0.0599231 0)
(-0.0155253 0.0597911 0)
(-0.0151894 0.0608096 0)
(-0.0136958 0.0632979 0)
(-0.0109026 0.0676384 0)
(-0.00641732 0.0742655 0)
(0.000270876 0.0836702 0)
(0.0104363 0.0955468 0)
(0.0245413 0.107453 0)
(0.0432726 0.109842 0)
(0.0579766 0.0854744 0)
(0.0680552 0.0157104 0)
(0.0480639 -0.0820769 0)
(0.0251154 -0.185674 0)
(-0.0388513 -0.344884 0)
(-0.00938762 -0.467308 0)
(-0.00312506 0.0307507 0)
(-0.00910379 0.0598006 0)
(-0.0131901 0.0667721 0)
(-0.0152672 0.0666398 0)
(-0.0158731 0.0640973 0)
(-0.0153488 0.0620028 0)
(-0.0136782 0.0610552 0)
(-0.0106849 0.061558 0)
(-0.0060886 0.0637535 0)
(0.000657977 0.0678001 0)
(0.0101001 0.0739439 0)
(0.0233727 0.0816447 0)
(0.0403104 0.0888688 0)
(0.0621894 0.089041 0)
(0.0789601 0.0711962 0)
(0.0924083 0.0203474 0)
(0.0702587 -0.0550795 0)
(0.0480017 -0.14255 0)
(-0.0274799 -0.323472 0)
(0.00235869 -0.490615 0)
(-0.000926901 0.04405 0)
(-0.00746245 0.0610265 0)
(-0.0165892 0.0636799 0)
(-0.0186093 0.0599312 0)
(-0.0194772 0.0568993 0)
(-0.0181098 0.054906 0)
(-0.0152468 0.0539415 0)
(-0.0107487 0.053904 0)
(-0.00446515 0.0548843 0)
(0.00417433 0.0568995 0)
(0.0155639 0.060194 0)
(0.0305025 0.0641898 0)
(0.0481424 0.067615 0)
(0.0706126 0.0662894 0)
(0.0865422 0.0540161 0)
(0.101803 0.0209575 0)
(0.0794341 -0.0324875 0)
(0.0633869 -0.103214 0)
(-0.0101299 -0.301035 0)
(0.0208633 -0.50048 0)
(-0.0125721 0.0321862 0)
(-0.0230564 0.0805567 0)
(-0.0206709 0.0807847 0)
(-0.0245643 0.0758688 0)
(-0.0240007 0.0684478 0)
(-0.0216162 0.0623336 0)
(-0.0171244 0.0574881 0)
(-0.0106939 0.0538102 0)
(-0.00239739 0.0513075 0)
(0.00822268 0.049765 0)
(0.0210729 0.0493197 0)
(0.0368615 0.049344 0)
(0.0537942 0.0500692 0)
(0.0751605 0.0484624 0)
(0.0882159 0.0428383 0)
(0.106031 0.0263315 0)
(0.0899613 -0.00631167 0)
(0.0984084 -0.0636995 0)
(0.039305 -0.273035 0)
(0.0570304 -0.488808 0)
(-0.0776799 0.0957839 0)
(-0.0632333 0.0587445 0)
(-0.065092 0.0600251 0)
(-0.0423779 0.0534148 0)
(-0.024416 0.0464313 0)
(-0.00361095 0.04126 0)
(0.0160314 0.0374963 0)
(0.0360812 0.0343137 0)
(0.0547088 0.0320181 0)
(0.0750145 0.0299599 0)
(0.0927094 0.0288152 0)
(0.115293 0.0276807 0)
(0.131072 0.0269372 0)
(0.159652 0.0256355 0)
(0.169108 0.0201273 0)
(0.202567 0.011182 0)
(0.190027 -0.0215261 0)
(0.221842 -0.0736815 0)
(0.153772 -0.251583 0)
(0.124701 -0.432905 0)
(0.11935 0.140727 0)
(0.151885 0.0860101 0)
(0.228299 0.0634497 0)
(0.283777 0.0480109 0)
(0.325237 0.0373982 0)
(0.363576 0.0296529 0)
(0.392342 0.0242504 0)
(0.423583 0.0201884 0)
(0.443592 0.0173093 0)
(0.472184 0.0149988 0)
(0.485105 0.0133076 0)
(0.514449 0.0119434 0)
(0.519994 0.0108261 0)
(0.552104 0.00951896 0)
(0.546952 0.00750895 0)
(0.578747 0.00303856 0)
(0.546927 -0.00582619 0)
(0.552549 -0.0268932 0)
(0.419408 -0.0730145 0)
(0.274902 -0.15167 0)
)
;

boundaryField
{
    movingWall
    {
        type            fixedValue;
        value           uniform (1 0 0);
    }
    fixedWalls
    {
        type            noSlip;
    }
    frontAndBack
    {
        type            empty;
    }
}


// ************************************************************************* //
