/*--------------------------------*- C++ -*----------------------------------*\
  =========                 |
  \\      /  F ield         | OpenFOAM: The Open Source CFD Toolbox
   \\    /   O peration     | Website:  https://openfoam.org
    \\  /    A nd           | Version:  10
     \\/     M anipulation  |
\*---------------------------------------------------------------------------*/
FoamFile
{
    format      ascii;
    class       volScalarField;
    location    "1.3";
    object      p;
}
// * * * * * * * * * * * * * * * * * * * * * * * * * * * * * * * * * * * * * //

dimensions      [0 2 -2 0 0 0 0];

internalField   nonuniform List<scalar> 
400
(
-6.14302e-10
1.99963e-05
0.00012322
0.000291081
0.000521404
0.000809154
0.00114777
0.00152942
0.00194504
0.00238447
0.00283659
0.00328951
0.00373075
0.00414762
0.00452751
0.00485837
0.00512916
0.00533052
0.00545692
0.00548658
-2.08688e-05
-1.4488e-06
0.000102405
0.000270857
0.000502088
0.000791176
0.00113162
0.00151562
0.00193412
0.00237697
0.00283297
0.00329023
0.00373611
0.00415776
0.00454236
0.00487761
0.00515221
0.0053566
0.00548531
0.00551503
-0.000125911
-0.000106902
1.22377e-07
0.000173896
0.000412666
0.000711436
0.00106359
0.0014612
0.00189503
0.00235471
0.00282886
0.00330506
0.00377029
0.00421112
0.00461409
0.00496612
0.00525504
0.00547047
0.00560636
0.00563727
-0.000303974
-0.000284736
-0.000172185
1.0789e-05
0.000262485
0.000577754
0.000949774
0.00137035
0.00182997
0.00231787
0.00282218
0.00333002
0.00382755
0.00430047
0.00473419
0.00511436
0.0054274
0.00566149
0.00580956
0.00584347
-0.00055947
-0.000539658
-0.000419139
-0.000222945
4.72695e-05
0.000386119
0.000786472
0.00123977
0.00173606
0.00226408
0.00281136
0.00336429
0.00390803
0.00442702
0.00490516
0.00532622
0.00567455
0.00593613
0.00610227
0.00614097
-0.000898699
-0.000878115
-0.00074708
-0.000533462
-0.000238872
0.000130979
0.000568539
0.00106477
0.00160917
0.00218989
0.00279372
0.00340625
0.00401138
0.00459201
0.00513003
0.00560677
0.00600361
0.0063034
0.00649489
0.00654061
-0.00132968
-0.00130825
-0.00116401
-0.000928543
-0.000603389
-0.000194705
0.000289414
0.000839331
0.00144392
0.00209064
0.00276552
0.0034533
0.00413652
0.00479629
0.0054121
0.00596207
0.00642362
0.00677506
0.00700129
0.0070571
-0.00186265
-0.00184047
-0.00168017
-0.0014181
-0.00105575
-0.000599852
-5.92162e-05
0.000555798
0.00123335
0.00196017
0.00272155
0.00350151
0.00428128
0.00504008
0.00575463
0.00639915
0.0069458
0.00736645
0.00764007
0.00771043
-0.0025104
-0.00248777
-0.00230829
-0.00201443
-0.00160762
-0.00109542
-0.000487549
0.00020473
0.000968756
0.00179057
0.00265483
0.00354514
0.0044417
0.00532209
0.00616014
0.00692546
0.00758346
0.008097
0.00843576
0.00852767
-0.00328868
-0.0032662
-0.00306405
-0.00273258
-0.0022732
-0.00169462
-0.00100779
-0.000225185
0.000639612
0.001572
0.0025562
0.00357601
0.00461114
0.00563836
0.00662902
0.00754772
0.00835153
0.00899089
0.00942059
0.00954584
-0.00421698
-0.00419558
-0.00396677
-0.00359088
-0.00306953
-0.00241306
-0.00163424
-0.00074714
0.000233511
0.00129256
0.00241416
0.0035828
0.00477915
0.00598061
0.00715748
0.00826989
0.00926518
0.0100773
0.0106368
0.0108168
-0.00531974
-0.00530057
-0.00504036
-0.00461171
-0.00401702
-0.00326904
-0.00238324
-0.00137599
-0.000263586
0.00093841
0.00221545
0.00355033
0.00493
0.006334
0.00773427
0.00908926
0.0103366
0.0113902
0.0121391
0.0124161
-0.00662855
-0.00661235
-0.00631498
-0.00582268
-0.00514017
-0.00428367
-0.00327276
-0.00212748
-0.000866596
0.000493576
0.00193924
0.00345839
0.00504113
0.00667418
0.00833629
0.00998989
0.011568
0.0129648
0.0139975
0.0144584
-0.00818831
-0.00817222
-0.00782987
-0.00725854
-0.00646863
-0.00548078
-0.00432143
-0.00301663
-0.00158903
-5.598e-05
0.00157076
0.00328436
0.00508247
0.00696379
0.00892161
0.0109329
0.0129368
0.0148311
0.0162994
0.0171214
-0.0100405
-0.0100268
-0.00963513
-0.00896402
-0.00803864
-0.00688647
-0.00554699
-0.00405575
-0.00244084
-0.000721212
0.00109376
0.00300371
0.0050166
0.00714964
0.00942119
0.0118415
0.0143735
0.0169869
0.0191161
0.0207296
-0.0124505
-0.0122942
-0.0118217
-0.0110039
-0.00989607
-0.00852874
-0.00696431
-0.00525142
-0.00342509
-0.00150611
0.000498164
0.00259466
0.00480109
0.00716174
0.00972791
0.0125713
0.0156895
0.0193021
0.0223588
0.0257529
-0.014772
-0.0149187
-0.0144289
-0.0134505
-0.0120936
-0.0104328
-0.00857927
-0.00659838
-0.0045321
-0.00240282
-0.000216423
0.00203911
0.00439303
0.00690987
0.00965662
0.0128352
0.0163163
0.0213713
0.0254768
0.0329549
-0.0202964
-0.0182055
-0.0177408
-0.0163239
-0.0146046
-0.0125692
-0.0103578
-0.0080543
-0.00571609
-0.00336601
-0.00100578
0.00139273
0.00388808
0.00652677
0.00951754
0.0131408
0.0171007
0.0239142
0.0298212
0.042827
-0.0227073
-0.0241669
-0.0228837
-0.0210497
-0.0184611
-0.0155075
-0.0125658
-0.00973139
-0.00701935
-0.00441633
-0.00190115
0.000536064
0.00287277
0.00532185
0.00708748
0.0113563
0.0111608
0.0214096
0.0216694
0.052587
-0.0465361
-0.0239313
-0.023728
-0.0215637
-0.0186717
-0.0157862
-0.0129535
-0.0101444
-0.00741054
-0.00477547
-0.00224128
0.000224106
0.00260688
0.00515165
0.00770774
0.0117892
0.0161832
0.0303224
0.0513995
0.110636
)
;

boundaryField
{
    movingWall
    {
        type            zeroGradient;
    }
    fixedWalls
    {
        type            zeroGradient;
    }
    frontAndBack
    {
        type            empty;
    }
}


// ************************************************************************* //
