/*--------------------------------*- C++ -*----------------------------------*\
  =========                 |
  \\      /  F ield         | OpenFOAM: The Open Source CFD Toolbox
   \\    /   O peration     | Website:  https://openfoam.org
    \\  /    A nd           | Version:  10
     \\/     M anipulation  |
\*---------------------------------------------------------------------------*/
FoamFile
{
    format      ascii;
    class       surfaceScalarField;
    location    "8.45";
    object      phi;
}
// * * * * * * * * * * * * * * * * * * * * * * * * * * * * * * * * * * * * * //

dimensions      [0 3 -1 0 0 0 0];

internalField   nonuniform List<scalar> 
760
(
-1.27015e-05
1.27008e-05
-4.09322e-05
2.82307e-05
-7.49036e-05
3.39714e-05
-0.000110734
3.583e-05
-0.000147214
3.64808e-05
-0.000184004
3.679e-05
-0.000220761
3.67568e-05
-0.000256809
3.60473e-05
-0.000290981
3.41723e-05
-0.0003215
3.05191e-05
-0.000345886
2.43863e-05
-0.00036094
1.50534e-05
-0.000362889
1.94915e-06
-0.000347735
-1.51539e-05
-0.000312356
-3.53788e-05
-0.000255928
-5.64283e-05
-0.00018205
-7.38781e-05
-0.000100833
-8.12172e-05
-3.00879e-05
-7.07446e-05
-3.00879e-05
-3.04068e-05
4.31076e-05
-8.57647e-05
8.35887e-05
-0.000150435
9.86415e-05
-0.000217986
0.000103382
-0.000285953
0.000104447
-0.000353181
0.000104019
-0.000418601
0.000102176
-0.000480719
9.81654e-05
-0.000537375
9.08284e-05
-0.000585573
7.8717e-05
-0.000621383
6.01959e-05
-0.000639868
3.35384e-05
-0.000635971
-1.94707e-06
-0.000603718
-4.74074e-05
-0.000539062
-0.000100035
-0.000441305
-0.000154186
-0.000316243
-0.000198939
-0.00017968
-0.000217781
-5.90961e-05
-0.000191328
-8.9184e-05
-3.85228e-05
8.16304e-05
-0.000106607
0.000151673
-0.000185289
0.000177323
-0.000266878
0.000184971
-0.000348456
0.000186025
-0.00042864
0.000184203
-0.000506185
0.000179722
-0.000579443
0.000171423
-0.000646088
0.000157473
-0.0007029
0.000135529
-0.000745596
0.000102892
-0.000768911
5.68534e-05
-0.000766213
-4.64572e-06
-0.000730399
-8.32206e-05
-0.000655433
-0.000175002
-0.000538861
-0.000270757
-0.00038635
-0.000351451
-0.000217504
-0.000386627
-6.92105e-05
-0.000339622
-0.000158395
-4.16402e-05
0.000123271
-0.000115266
0.000225299
-0.000200097
0.000262155
-0.000287913
0.000272787
-0.000375788
0.000273901
-0.000462495
0.00027091
-0.000547018
0.000264244
-0.000627991
0.000252396
-0.000703391
0.000232873
-0.00077024
0.000202379
-0.000824251
0.000156903
-0.000859482
9.20847e-05
-0.000868552
4.42365e-06
-0.000841188
-0.000110584
-0.000767352
-0.000248839
-0.000639696
-0.000398413
-0.000460623
-0.000530523
-0.000254154
-0.000593096
-7.40839e-05
-0.000519692
-0.000232478
-4.24661e-05
0.000165737
-0.000118385
0.000301218
-0.000206069
0.000349839
-0.000297098
0.000363815
-0.000388746
0.000365549
-0.000480173
0.000362336
-0.000570874
0.000354945
-0.0006601
0.000341623
-0.00074651
0.000319282
-0.000827756
0.000283625
-0.000899919
0.000229066
-0.000956719
0.000148885
-0.000988629
3.63333e-05
-0.000982829
-0.000116384
-0.000921886
-0.000309781
-0.000789087
-0.000531212
-0.000577467
-0.000742143
-0.000311871
-0.000858692
-7.97223e-05
-0.000751841
-0.000312201
-4.23402e-05
0.000208077
-0.000119199
0.000378076
-0.000208441
0.000439081
-0.000301563
0.000456937
-0.000396135
0.000460121
-0.000491859
0.00045806
-0.000588966
0.000452052
-0.000687639
0.000440296
-0.000787646
0.00041929
-0.000887838
0.000383817
-0.000985357
0.000326585
-0.0010744
0.000237933
-0.0011444
0.00010633
-0.00117924
-8.15431e-05
-0.00115267
-0.000336354
-0.00103123
-0.000652654
-0.000783805
-0.000989565
-0.000421947
-0.00122055
-9.47988e-05
-0.00107899
-0.000406999
-4.17568e-05
0.000249834
-0.000118923
0.000455242
-0.000209075
0.000529233
-0.000303633
0.000551495
-0.000400491
0.000556979
-0.00049999
0.00055756
-0.000603297
0.000555359
-0.000711857
0.000548856
-0.000827086
0.000534518
-0.000949875
0.000506606
-0.0010797
0.000456415
-0.00121314
0.000371368
-0.00134123
0.000234417
-0.00144877
2.59994e-05
-0.00149917
-0.00028595
-0.00143195
-0.000719873
-0.00116024
-0.00126128
-0.000650724
-0.00173007
-0.000148435
-0.00158128
-0.000555434
-4.08441e-05
0.000290678
-0.00011788
0.000532278
-0.000208366
0.000619719
-0.000303559
0.000646688
-0.000401655
0.000655075
-0.000503665
0.00065957
-0.000611815
0.000663509
-0.000729126
0.000666167
-0.00085927
0.000664663
-0.00100632
0.000653654
-0.00117415
0.000624243
-0.00136517
0.000562396
-0.00157822
0.000447459
-0.00180142
0.000249204
-0.00200292
-8.44483e-05
-0.00206513
-0.000657666
-0.00179686
-0.00152954
-0.00109784
-0.00242909
-0.000315443
-0.00236368
-0.000870877
-3.96691e-05
0.000330347
-0.000116204
0.000608813
-0.000206347
0.000709862
-0.000301039
0.00074138
-0.000398683
0.000752719
-0.000500911
0.000761798
-0.000611
0.000773598
-0.000733633
0.000788799
-0.000875136
0.000806165
-0.00104385
0.000822368
-0.00125045
0.000830842
-0.00150818
0.000820132
-0.00183235
0.000771624
-0.00222865
0.000645499
-0.00264515
0.000332056
-0.00289842
-0.000404399
-0.00265582
-0.00177214
-0.00181104
-0.00327386
-0.000711872
-0.00346285
-0.00158275
-3.8413e-05
0.00036876
-0.000114239
0.000684639
-0.000203307
0.00079893
-0.000296035
0.000834108
-0.000390877
0.000847562
-0.000489925
0.000860846
-0.000597301
0.000880974
-0.000719135
0.000910633
-0.00086427
0.0009513
-0.00104556
0.00100365
-0.00128195
0.00106724
-0.00160121
0.00113939
-0.00203832
0.00120873
-0.00261076
0.00121794
-0.00322758
0.000948874
-0.00360218
-2.97928e-05
-0.00343159
-0.00194273
-0.00265159
-0.00405387
-0.00135553
-0.0047589
-0.00293828
-3.74898e-05
0.00040625
-0.000112799
0.000759948
-0.000200177
0.000886308
-0.0002893
0.000923231
-0.000378471
0.000936733
-0.00046998
0.000952354
-0.000568338
0.000979332
-0.000680383
0.00102268
-0.000816418
0.00108734
-0.000992335
0.00117957
-0.00123313
0.00130803
-0.00157607
0.00148233
-0.00206182
0.00169448
-0.00268913
0.00184526
-0.0033249
0.00158464
-0.00369898
0.000344287
-0.00363475
-0.00200696
-0.00311218
-0.00457644
-0.00188771
-0.00598337
-0.00482599
-3.77539e-05
0.000444004
-0.000113538
0.000835732
-0.000198914
0.000971683
-0.000282727
0.00100704
-0.000363112
0.00101712
-0.000442252
0.00103149
-0.00052436
0.00106144
-0.000615685
0.001114
-0.000725645
0.00119729
-0.00086873
0.00132266
-0.00106704
0.00150634
-0.00135018
0.00176547
-0.00174147
0.00208577
-0.00221179
0.00231558
-0.00265165
0.0020245
-0.0029106
0.000603242
-0.00296559
-0.00195197
-0.00275355
-0.00478848
-0.00185235
-0.00688458
-0.00667833
-4.03118e-05
0.000484315
-0.000118633
0.000914054
-0.000202453
0.0010555
-0.000279792
0.00108438
-0.000348523
0.00108585
-0.00041053
0.0010935
-0.000469177
0.00112009
-0.000528572
0.0011734
-0.000594376
0.0012631
-0.000674439
0.00140272
-0.000779079
0.00161098
-0.00091707
0.00190346
-0.00108958
0.00225828
-0.00126687
0.00249286
-0.00142586
0.00218349
-0.00153861
0.000715989
-0.00168242
-0.00180816
-0.0018171
-0.00465381
-0.0014114
-0.00729028
-0.00808973
-4.89746e-05
0.00053329
-0.000134152
0.000999231
-0.00021632
0.00113767
-0.000284556
0.00115262
-0.000338552
0.00113985
-0.000380189
0.00113514
-0.000410927
0.00115083
-0.000432122
0.00119459
-0.000444586
0.00127556
-0.000447801
0.00140594
-0.000438781
0.00160196
-0.000406673
0.00187135
-0.000338622
0.00219023
-0.000232293
0.00238653
-0.000140563
0.00209176
-0.000164037
0.000739464
-0.000405068
-0.00156713
-0.000889512
-0.00416936
-0.000946385
-0.00723341
-0.00903612
-6.02487e-05
0.000593539
-0.000156253
0.00109524
-0.000241676
0.00122309
-0.000305939
0.00121688
-0.000346439
0.00118035
-0.000365934
0.00115463
-0.000366026
0.00115092
-0.000346271
0.00117484
-0.000303642
0.00123293
-0.000231056
0.00133335
-0.000115722
0.00148663
6.24106e-05
0.00169322
0.000319136
0.0019335
0.000640496
0.00206517
0.000916739
0.00181552
0.000934024
0.000722179
0.000564442
-0.00119755
-0.000195392
-0.00340953
-0.00057903
-0.00684977
-0.00961515
-0.000127932
0.000721471
-0.00023833
0.00120563
-0.000308021
0.00129279
-0.000345212
0.00125407
-0.000359526
0.00119466
-0.000354217
0.00114932
-0.000327467
0.00112417
-0.000274542
0.00112191
-0.000188451
0.00114684
-5.85203e-05
0.00120342
0.000130188
0.00129792
0.000394908
0.0014285
0.000752495
0.00157592
0.00117552
0.00164215
0.00153797
0.00145306
0.00159085
0.0006693
0.00116965
-0.000776345
0.000291616
-0.00253149
-0.000275285
-0.00628287
-0.00989043
-8.25879e-05
0.000804059
-0.000258575
0.00138162
-0.000367981
0.00140219
-0.000418214
0.0013043
-0.000425986
0.00120243
-0.000401579
0.00112492
-0.000347372
0.00106996
-0.000260435
0.00103497
-0.000134656
0.00102106
4.17491e-05
0.00102701
0.000279691
0.00105998
0.000595095
0.0011131
0.00099162
0.00117939
0.00144041
0.00119336
0.00182433
0.00106915
0.00189585
0.000597772
0.00148331
-0.0003638
0.000664765
-0.00171295
0.000100165
-0.00571827
-0.00979027
-0.000378484
0.00118254
-0.00043438
0.00143752
-0.00048031
0.00144812
-0.000514534
0.00133853
-0.000501258
0.00118916
-0.000446537
0.0010702
-0.000353847
0.000977271
-0.000221226
0.000902354
-4.89834e-05
0.000848821
0.000169851
0.00080818
0.000439938
0.000789893
0.000771067
0.000781966
0.00115701
0.000793445
0.001563
0.000787367
0.00192477
0.000707383
0.00205861
0.000463931
0.00192824
-0.000233428
0.00153051
-0.00131522
0.000856541
-0.0050443
-0.00893373
-0.00136279
0.00254533
-0.00132509
0.00139982
-0.00106474
0.00118777
-0.000692053
0.000965842
-0.000299106
0.000796208
9.80205e-05
0.00067307
0.000488395
0.000586897
0.000871387
0.000519362
0.0012491
0.000471107
0.00162704
0.000430243
0.0020126
0.000404336
0.00241161
0.000382949
0.00283878
0.000366274
0.00328279
0.000343364
0.00372283
0.000267343
0.00405237
0.000134388
0.00413792
-0.000318982
0.0039748
-0.00115209
0.0025189
-0.0035884
-0.00641483
0.00254533
0.00394515
0.00513292
0.00609876
0.00689497
0.00756804
0.00815494
0.0086743
0.00914541
0.00957565
0.00997999
0.0103629
0.0107292
0.0110726
0.0113399
0.0114743
0.0111553
0.0100032
0.00641483
)
;

boundaryField
{
    movingWall
    {
        type            calculated;
        value           uniform 0;
    }
    fixedWalls
    {
        type            calculated;
        value           uniform 0;
    }
    frontAndBack
    {
        type            empty;
        value           nonuniform List<scalar> 0();
    }
}


// ************************************************************************* //
