/*--------------------------------*- C++ -*----------------------------------*\
  =========                 |
  \\      /  F ield         | OpenFOAM: The Open Source CFD Toolbox
   \\    /   O peration     | Website:  https://openfoam.org
    \\  /    A nd           | Version:  10
     \\/     M anipulation  |
\*---------------------------------------------------------------------------*/
FoamFile
{
    format      ascii;
    class       surfaceScalarField;
    location    "2.775";
    object      phi;
}
// * * * * * * * * * * * * * * * * * * * * * * * * * * * * * * * * * * * * * //

dimensions      [0 3 -1 0 0 0 0];

internalField   nonuniform List<scalar> 
760
(
-1.22311e-05
1.22311e-05
-3.30943e-05
2.08632e-05
-5.48285e-05
2.17342e-05
-7.55736e-05
2.07451e-05
-9.47007e-05
1.9127e-05
-0.000111754
1.70538e-05
-0.000126308
1.45539e-05
-0.000137953
1.16445e-05
-0.000146302
8.34871e-06
-0.000151001
4.69934e-06
-0.000151745
7.43789e-07
-0.000148279
-3.46546e-06
-0.000140459
-7.82061e-06
-0.000128259
-1.22002e-05
-0.000111811
-1.64471e-05
-9.14416e-05
-2.03698e-05
-6.77162e-05
-2.37254e-05
-4.16397e-05
-2.60765e-05
-1.58378e-05
-2.58019e-05
-1.58378e-05
-2.15126e-05
3.37436e-05
-5.44031e-05
5.37537e-05
-8.82332e-05
5.55644e-05
-0.000120389
5.29005e-05
-0.000149871
4.86094e-05
-0.000175952
4.31346e-05
-0.000197976
3.65784e-05
-0.000215344
2.9012e-05
-0.000227511
2.05157e-05
-0.000233993
1.11822e-05
-0.000234422
1.17243e-06
-0.000228465
-9.42255e-06
-0.000215971
-2.03149e-05
-0.000196964
-3.12066e-05
-0.000171689
-4.17222e-05
-0.000140659
-5.14002e-05
-0.000104728
-5.96559e-05
-6.53718e-05
-6.54331e-05
-2.61869e-05
-6.49869e-05
-4.20247e-05
-2.4005e-05
5.77486e-05
-6.0377e-05
9.01258e-05
-9.76712e-05
9.28585e-05
-0.000133068
8.8297e-05
-0.0001655
8.10416e-05
-0.000194187
7.18213e-05
-0.000218427
6.08186e-05
-0.00023758
4.81653e-05
-0.000251067
3.40027e-05
-0.000258383
1.84981e-05
-0.000259091
1.88036e-06
-0.000252794
-1.57197e-05
-0.000239321
-3.37879e-05
-0.000218647
-5.18808e-05
-0.000190974
-6.93948e-05
-0.000156806
-8.55686e-05
-0.000117035
-9.94263e-05
-7.32654e-05
-0.000109203
-2.94802e-05
-0.000108772
-7.15048e-05
-2.54944e-05
8.32431e-05
-6.4217e-05
0.000128848
-0.000103899
0.000132541
-0.000141576
0.000125974
-0.000176147
0.000115613
-0.000206812
0.000102486
-0.000232853
8.68594e-05
-0.000253609
6.89219e-05
-0.000268475
4.88682e-05
-0.000276896
2.69199e-05
-0.000278401
3.38461e-06
-0.000272492
-2.16284e-05
-0.000258866
-4.74137e-05
-0.000237383
-7.33643e-05
-0.000208133
-9.86441e-05
-0.000171529
-0.000122173
-0.000128443
-0.000142511
-8.06077e-05
-0.000157039
-3.24646e-05
-0.000156915
-0.000103969
-2.73218e-05
0.000110565
-6.89324e-05
0.000170459
-0.000111577
0.000175185
-0.000152099
0.000166496
-0.000189358
0.000152871
-0.000222534
0.000135663
-0.0002509
0.000115225
-0.000273779
9.1801e-05
-0.000290538
6.56271e-05
-0.000300574
3.69565e-05
-0.000303317
6.12701e-06
-0.000298182
-2.67634e-05
-0.000284675
-6.09208e-05
-0.000262448
-9.55907e-05
-0.000231382
-0.00012971
-0.000191715
-0.000161841
-0.000144247
-0.000189979
-9.0865e-05
-0.000210421
-3.66831e-05
-0.000211097
-0.000140653
-2.97172e-05
0.000140282
-7.50755e-05
0.000215817
-0.000121554
0.000221664
-0.000165746
0.000210688
-0.000206459
0.000193584
-0.00024286
0.000172064
-0.000274218
0.000146582
-0.000299852
0.000117435
-0.00031911
8.48851e-05
-0.000331341
4.91871e-05
-0.000335879
1.06649e-05
-0.000331994
-3.06484e-05
-0.000318945
-7.39691e-05
-0.000296088
-0.000118448
-0.000262955
-0.000162842
-0.00021947
-0.000205326
-0.00016624
-0.00024321
-0.000105296
-0.000271364
-4.26979e-05
-0.000273696
-0.00018335
-3.27504e-05
0.000173032
-8.28231e-05
0.00026589
-0.000134094
0.000272935
-0.000182841
0.000259435
-0.000227815
0.000238557
-0.00026818
0.000212429
-0.00030322
0.000181622
-0.000332275
0.00014649
-0.000354696
0.000107306
-0.000369799
6.42901e-05
-0.000376824
1.76904e-05
-0.000374884
-3.25884e-05
-0.000362912
-8.59419e-05
-0.00033984
-0.00014152
-0.000304668
-0.000198014
-0.000256754
-0.00025324
-0.000196281
-0.000303682
-0.000125312
-0.000342333
-5.11878e-05
-0.00034782
-0.000234538
-3.64916e-05
0.000209524
-9.23501e-05
0.000321748
-0.000149448
0.000330033
-0.000203675
0.000313662
-0.000253727
0.00028861
-0.000298788
0.00025749
-0.000338191
0.000221025
-0.000371337
0.000179636
-0.000397625
0.000133594
-0.000416379
8.30437e-05
-0.00042677
2.80819e-05
-0.000427762
-3.15965e-05
-0.000417889
-9.58155e-05
-0.000395523
-0.000163886
-0.000358863
-0.000234674
-0.000306297
-0.000305806
-0.000237133
-0.000372846
-0.00015313
-0.000426336
-6.33116e-05
-0.000437639
-0.00029785
-4.10475e-05
0.000250572
-0.000103905
0.000384606
-0.000167955
0.000394083
-0.000228625
0.000374332
-0.000284566
0.00034455
-0.000335015
0.00030794
-0.000379412
0.000265422
-0.000417282
0.000217507
-0.000448147
0.000164458
-0.00047141
0.000106307
-0.00048624
4.29118e-05
-0.000491512
-2.63248e-05
-0.000485317
-0.000102011
-0.000465337
-0.000183866
-0.000428636
-0.000271375
-0.000372024
-0.000362418
-0.000293068
-0.000451802
-0.000192433
-0.000526971
-8.12029e-05
-0.000548869
-0.000379053
-4.65878e-05
0.000297159
-0.000117858
0.000455876
-0.000190107
0.000466332
-0.00025821
0.000442435
-0.000320805
0.000407146
-0.000377248
0.000364382
-0.000427157
0.000315331
-0.00047028
0.00026063
-0.000506366
0.000200545
-0.000535019
0.000134959
-0.000555526
6.34195e-05
-0.000566823
-1.50279e-05
-0.000566599
-0.000102235
-0.000551787
-0.000198678
-0.00051796
-0.000305203
-0.000459524
-0.000420854
-0.00037081
-0.000540516
-0.000249594
-0.000648186
-0.000109065
-0.000689399
-0.000488117
-5.3393e-05
0.000350552
-0.00013478
0.000537263
-0.000216617
0.000548168
-0.000293153
0.000518972
-0.000363079
0.000477072
-0.000425955
0.000427258
-0.000481693
0.000371068
-0.000530385
0.000309323
-0.000572157
0.000242316
-0.000606981
0.000169784
-0.000634441
9.08795e-05
-0.000653923
4.45406e-06
-0.000662754
-9.34033e-05
-0.000657392
-0.00020404
-0.000631664
-0.000330931
-0.000576613
-0.000475905
-0.000481078
-0.000636051
-0.000336183
-0.000793081
-0.000155818
-0.000869764
-0.000643936
-6.19437e-05
0.000412496
-0.000155567
0.000630887
-0.000248549
0.00064115
-0.000334485
0.000604907
-0.000412244
0.000554832
-0.00048173
0.000496743
-0.000543286
0.000432624
-0.000597507
0.000363545
-0.000645077
0.000289886
-0.000686593
0.000211299
-0.000722342
0.000126628
-0.000751786
3.3898e-05
-0.000773742
-7.14471e-05
-0.000784005
-0.000193776
-0.000775029
-0.000339908
-0.000733839
-0.000517095
-0.000640875
-0.000729015
-0.00047424
-0.000959716
-0.000242062
-0.00110194
-0.000885998
-7.3123e-05
0.000485619
-0.00018166
0.000739424
-0.000287493
0.000746983
-0.000383671
0.000701085
-0.000469482
0.000640642
-0.000545352
0.000572613
-0.000612234
0.000499507
-0.000671394
0.000422705
-0.000724265
0.000342757
-0.000772302
0.000259336
-0.000816799
0.000171126
-0.000858459
7.55576e-05
-0.000897689
-3.2217e-05
-0.000931447
-0.000160018
-0.000952391
-0.000318963
-0.000944201
-0.000525285
-0.00087657
-0.000796646
-0.000705523
-0.00113076
-0.000415692
-0.00139177
-0.00130169
-8.86403e-05
0.000574259
-0.000215614
0.000866398
-0.000335917
0.000867286
-0.000442817
0.000807985
-0.000536425
0.00073425
-0.000617881
0.00065407
-0.000688936
0.000570561
-0.000751689
0.000485459
-0.000808492
0.000399559
-0.000861892
0.000312736
-0.000914658
0.000223892
-0.000969659
0.000130559
-0.00102852
2.66389e-05
-0.00109442
-9.41109e-05
-0.00116325
-0.000250131
-0.00121942
-0.00046912
-0.0012247
-0.000791362
-0.00109659
-0.00125888
-0.000758426
-0.00172994
-0.00206012
-0.000108986
0.000683246
-0.000259274
0.00101669
-0.00039661
0.00100462
-0.000514786
0.00092616
-0.000615391
0.000834855
-0.000700786
0.000739465
-0.000773941
0.000643716
-0.000837952
0.00054947
-0.000896099
0.000457706
-0.000952004
0.000368641
-0.00100977
0.000281657
-0.00107457
0.000195358
-0.00115497
0.000107038
-0.00125986
1.07788e-05
-0.00139361
-0.000116376
-0.00155503
-0.0003077
-0.00171262
-0.000633771
-0.00170598
-0.00126552
-0.00132099
-0.00211492
-0.00338111
-0.000163585
0.000846831
-0.000332798
0.0011859
-0.000478947
0.00115077
-0.000602181
0.00104939
-0.000706625
0.0009393
-0.00079397
0.000826809
-0.000866892
0.000716638
-0.000928927
0.000611504
-0.00098444
0.00051322
-0.00103842
0.000422619
-0.00109737
0.000340612
-0.00116897
0.000266954
-0.00126451
0.000202579
-0.00139835
0.000144618
-0.00159749
8.27604e-05
-0.00187484
-3.03465e-05
-0.00222129
-0.000287323
-0.00235976
-0.00112704
-0.00184185
-0.00263284
-0.00522296
-0.000141624
0.000988455
-0.000382707
0.00142698
-0.000572207
0.00134027
-0.000718073
0.00119526
-0.000827252
0.00104848
-0.000907057
0.000906614
-0.000966212
0.000775794
-0.00101226
0.000657551
-0.00105118
0.000552135
-0.00108737
0.000458809
-0.00112694
0.000380185
-0.00117687
0.000316889
-0.00125256
0.000278261
-0.0013778
0.000269864
-0.00159755
0.000302512
-0.00193312
0.000305221
-0.00238436
0.000163911
-0.0025278
-0.000983596
-0.00175808
-0.00340255
-0.00698104
-0.000423817
0.00141227
-0.000589716
0.00159288
-0.000723408
0.00147396
-0.000832056
0.00130391
-0.000892967
0.00110939
-0.000920485
0.000934132
-0.000926977
0.000782286
-0.000921123
0.000651697
-0.000910474
0.000541487
-0.000898981
0.000447315
-0.000895311
0.000376515
-0.000900495
0.000322073
-0.000927804
0.00030557
-0.000974862
0.000316922
-0.00106612
0.000393766
-0.00117655
0.000415654
-0.0012762
0.00026356
-0.00129866
-0.000961138
-0.000664034
-0.00403718
-0.00764508
-0.00125682
0.00266909
-0.00116872
0.00150478
-0.000929672
0.00123492
-0.000612741
0.000986977
-0.000291828
0.000788477
8.64324e-06
0.000633661
0.000277032
0.000513897
0.000511898
0.000416831
0.000712349
0.000341036
0.000883716
0.000275949
0.00103007
0.000230156
0.00115835
0.000193801
0.00129353
0.00017039
0.0014368
0.000173645
0.00168017
0.000150403
0.00195371
0.000142113
0.00231837
-0.0001011
0.00234649
-0.000989257
0.00158183
-0.00327252
-0.00606325
0.00266909
0.00417387
0.00540879
0.00639576
0.00718424
0.0078179
0.0083318
0.00874863
0.00908967
0.00936562
0.00959577
0.00978957
0.00995996
0.0101336
0.010284
0.0104261
0.010325
0.00933577
0.00606325
)
;

boundaryField
{
    movingWall
    {
        type            calculated;
        value           uniform 0;
    }
    fixedWalls
    {
        type            calculated;
        value           uniform 0;
    }
    frontAndBack
    {
        type            empty;
        value           nonuniform List<scalar> 0();
    }
}


// ************************************************************************* //
