/*--------------------------------*- C++ -*----------------------------------*\
  =========                 |
  \\      /  F ield         | OpenFOAM: The Open Source CFD Toolbox
   \\    /   O peration     | Website:  https://openfoam.org
    \\  /    A nd           | Version:  10
     \\/     M anipulation  |
\*---------------------------------------------------------------------------*/
FoamFile
{
    format      ascii;
    class       volVectorField;
    location    "2.775";
    object      U;
}
// * * * * * * * * * * * * * * * * * * * * * * * * * * * * * * * * * * * * * //

dimensions      [0 1 -1 0 0 0 0];

internalField   nonuniform List<vector> 
400
(
(-0.00021729 0.000215248 0)
(-0.00105425 0.000405858 0)
(-0.0022149 0.000427514 0)
(-0.00327496 0.000409742 0)
(-0.00427486 0.00037992 0)
(-0.00518351 0.000341427 0)
(-0.0059772 0.000294474 0)
(-0.00663527 0.00023906 0)
(-0.00713784 0.000175368 0)
(-0.0074663 0.000103878 0)
(-0.00760415 2.55269e-05 0)
(-0.00753721 -5.8975e-05 0)
(-0.00725521 -0.000147529 0)
(-0.0067538 -0.000237453 0)
(-0.00603543 -0.000325371 0)
(-0.00511087 -0.000407166 0)
(-0.00400315 -0.000477608 0)
(-0.00275936 -0.000527324 0)
(-0.00135092 -0.000520104 0)
(-0.000295037 -0.00029884 0)
(-0.000421182 0.00105666 0)
(-0.0017946 0.00174389 0)
(-0.00359156 0.00181062 0)
(-0.00524158 0.0017265 0)
(-0.00678832 0.00158956 0)
(-0.00818427 0.00141429 0)
(-0.00939256 0.00120353 0)
(-0.0103822 0.000959109 0)
(-0.0111247 0.000683303 0)
(-0.0115941 0.000379073 0)
(-0.0117692 5.0132e-05 0)
(-0.0116323 -0.000298272 0)
(-0.0111707 -0.000657567 0)
(-0.0103812 -0.00101776 0)
(-0.00927027 -0.00136614 0)
(-0.00785578 -0.00168716 0)
(-0.00617334 -0.00196117 0)
(-0.00428951 -0.00215269 0)
(-0.00217707 -0.002133 0)
(-0.000522677 -0.00134261 0)
(-0.000473092 0.00227977 0)
(-0.00199785 0.0035822 0)
(-0.00398043 0.00369557 0)
(-0.005798 0.00351587 0)
(-0.00750014 0.00322818 0)
(-0.00903562 0.00286178 0)
(-0.0103649 0.00242382 0)
(-0.011455 0.00191942 0)
(-0.0122754 0.00135419 0)
(-0.0127989 0.000734818 0)
(-0.0130023 6.94346e-05 0)
(-0.012864 -0.000631144 0)
(-0.0123697 -0.00135149 0)
(-0.0115143 -0.00207186 0)
(-0.0103018 -0.00276738 0)
(-0.00874853 -0.00340775 0)
(-0.00689084 -0.00395448 0)
(-0.0048007 -0.00433802 0)
(-0.00244663 -0.00431438 0)
(-0.000591507 -0.00282023 0)
(-0.000501125 0.00351083 0)
(-0.00212331 0.00545122 0)
(-0.0042347 0.00561125 0)
(-0.00616847 0.00533442 0)
(-0.00798124 0.00489581 0)
(-0.00961987 0.00433911 0)
(-0.0110438 0.00367538 0)
(-0.0122191 0.00291264 0)
(-0.0131142 0.00205928 0)
(-0.0137002 0.00112496 0)
(-0.0139517 0.000121736 0)
(-0.0138439 -0.000935035 0)
(-0.0133563 -0.00202509 0)
(-0.0124779 -0.00311984 0)
(-0.0112065 -0.00418229 0)
(-0.00955338 -0.00516627 0)
(-0.00755141 -0.00601213 0)
(-0.00527714 -0.00661199 0)
(-0.00269476 -0.00659611 0)
(-0.000651442 -0.00435742 0)
(-0.000535601 0.00482516 0)
(-0.00227711 0.00744998 0)
(-0.00454743 0.00765973 0)
(-0.00662591 0.00728043 0)
(-0.00857716 0.0066835 0)
(-0.0103459 0.00592803 0)
(-0.0118908 0.0050293 0)
(-0.0131774 0.00399805 0)
(-0.0141731 0.00284501 0)
(-0.0148472 0.00158187 0)
(-0.0151708 0.000222734 0)
(-0.0151145 -0.00121365 0)
(-0.0146508 -0.00270274 0)
(-0.0137584 -0.00420886 0)
(-0.0124248 -0.00568345 0)
(-0.0106507 -0.00706267 0)
(-0.00846226 -0.00826113 0)
(-0.00594016 -0.00912334 0)
(-0.00304404 -0.0091334 0)
(-0.000737276 -0.00607205 0)
(-0.00058123 0.00624563 0)
(-0.00247815 0.00961546 0)
(-0.00495433 0.00987918 0)
(-0.00721984 0.00939052 0)
(-0.0093493 0.00862595 0)
(-0.0112851 0.00766152 0)
(-0.0129853 0.00651709 0)
(-0.0144155 0.00520604 0)
(-0.0155427 0.00374075 0)
(-0.0163347 0.00213373 0)
(-0.0167589 0.000399376 0)
(-0.0167803 -0.0014434 0)
(-0.0163615 -0.00336835 0)
(-0.0154676 -0.00533471 0)
(-0.0140694 -0.00728357 0)
(-0.0121505 -0.00913219 0)
(-0.00972273 -0.0107633 0)
(-0.0068684 -0.0119597 0)
(-0.00353979 -0.0120278 0)
(-0.000861383 -0.00803903 0)
(-0.000639256 0.00780093 0)
(-0.00273235 0.0119913 0)
(-0.00546687 0.0123133 0)
(-0.00796531 0.0117056 0)
(-0.0103152 0.010761 0)
(-0.0124566 0.00957471 0)
(-0.0143476 0.0081718 0)
(-0.015955 0.00656839 0)
(-0.0172466 0.00477772 0)
(-0.0181898 0.00281143 0)
(-0.0187489 0.000681574 0)
(-0.0188832 -0.001596 0)
(-0.018543 -0.00399836 0)
(-0.0176746 -0.00648424 0)
(-0.0162249 -0.00898791 0)
(-0.0141489 -0.011408 0)
(-0.0114312 -0.0135883 0)
(-0.0081472 -0.0152299 0)
(-0.0042355 -0.0154119 0)
(-0.00103957 -0.010361 0)
(-0.000710974 0.00952458 0)
(-0.00304567 0.0146283 0)
(-0.00609631 0.0150121 0)
(-0.00887632 0.0142714 0)
(-0.0114901 0.0131298 0)
(-0.0138753 0.0117049 0)
(-0.015992 0.0100282 0)
(-0.0178099 0.00811896 0)
(-0.0192999 0.00599046 0)
(-0.020431 0.00365155 0)
(-0.0211664 0.00110857 0)
(-0.0214603 -0.0016307 0)
(-0.0212499 -0.0045536 0)
(-0.0204575 -0.00762632 0)
(-0.018996 -0.0107844 0)
(-0.016775 -0.0139125 0)
(-0.0137294 -0.0168102 0)
(-0.0099069 -0.0190691 0)
(-0.00521957 -0.0194633 0)
(-0.00130066 -0.013185 0)
(-0.000798543 0.0114542 0)
(-0.00342688 0.0175831 0)
(-0.00685834 0.0180294 0)
(-0.0099716 0.0171351 0)
(-0.0128931 0.0157733 0)
(-0.0155592 0.0140882 0)
(-0.0179338 0.0121197 0)
(-0.019993 0.00989093 0)
(-0.0217143 0.00741481 0)
(-0.0230718 0.00469533 0)
(-0.0240313 0.00172912 0)
(-0.0245454 -0.00149056 0)
(-0.0245387 -0.00497123 0)
(-0.0239058 -0.00869945 0)
(-0.0225148 -0.0126274 0)
(-0.0202068 -0.0166396 0)
(-0.0168293 -0.0204938 0)
(-0.0123559 -0.0236407 0)
(-0.00664849 -0.024422 0)
(-0.00170175 -0.0167337 0)
(-0.000905729 0.013634 0)
(-0.00388961 0.0209209 0)
(-0.00777593 0.0214244 0)
(-0.0112774 0.0203459 0)
(-0.01455 0.0187317 0)
(-0.0175302 0.0167578 0)
(-0.0201896 0.0144759 0)
(-0.0225152 0.0119142 0)
(-0.0244959 0.00908547 0)
(-0.026117 0.00598695 0)
(-0.0273525 0.00260156 0)
(-0.0281608 -0.00109899 0)
(-0.028459 -0.00515705 0)
(-0.0281142 -0.00959709 0)
(-0.0269412 -0.0144157 0)
(-0.0246848 -0.0195276 0)
(-0.0210494 -0.0246704 0)
(-0.015836 -0.0291332 0)
(-0.00881567 -0.0306181 0)
(-0.00236372 -0.0213726 0)
(-0.00103934 0.0161188 0)
(-0.0044557 0.0247185 0)
(-0.0088835 0.0252628 0)
(-0.0128315 0.0239542 0)
(-0.0164958 0.0220418 0)
(-0.0198164 0.0197411 0)
(-0.022778 0.017119 0)
(-0.0253841 0.0142112 0)
(-0.0276422 0.0110314 0)
(-0.0295563 0.0075692 0)
(-0.0311177 0.00378953 0)
(-0.0323044 -0.000368385 0)
(-0.0330372 -0.00497935 0)
(-0.0331653 -0.010149 0)
(-0.0324524 -0.0159581 0)
(-0.0305218 -0.0224095 0)
(-0.0268655 -0.0292837 0)
(-0.0209235 -0.0357281 0)
(-0.0123071 -0.0385036 0)
(-0.00355962 -0.0277507 0)
(-0.00121225 0.0189821 0)
(-0.00516123 0.0290699 0)
(-0.0102334 0.0296185 0)
(-0.0146887 0.0280102 0)
(-0.0187793 0.0257349 0)
(-0.0224549 0.0230551 0)
(-0.0257205 0.020058 0)
(-0.0286037 0.0167904 0)
(-0.0311388 0.0132687 0)
(-0.0333597 0.0094766 0)
(-0.035291 0.00536063 0)
(-0.0369304 0.000825238 0)
(-0.0382406 -0.00425917 0)
(-0.0390947 -0.0101013 0)
(-0.0392126 -0.0169264 0)
(-0.0380986 -0.0249285 0)
(-0.0349712 -0.0340759 0)
(-0.0286105 -0.043489 0)
(-0.0183559 -0.0486371 0)
(-0.00593613 -0.0371304 0)
(-0.00145104 0.0223324 0)
(-0.00606875 0.0341007 0)
(-0.0119061 0.0345763 0)
(-0.0169286 0.0325618 0)
(-0.0214684 0.0298312 0)
(-0.0254954 0.0267009 0)
(-0.029044 0.0232826 0)
(-0.0321746 0.0196379 0)
(-0.0349571 0.0157899 0)
(-0.0374656 0.0117205 0)
(-0.0397704 0.00736312 0)
(-0.0419256 0.00259132 0)
(-0.043966 -0.00280368 0)
(-0.0458368 -0.00910724 0)
(-0.0472994 -0.0167889 0)
(-0.0478104 -0.0263879 0)
(-0.046319 -0.0383378 0)
(-0.0405824 -0.0520583 0)
(-0.0295698 -0.0614784 0)
(-0.0110881 -0.0522968 0)
(-0.00180907 0.0262461 0)
(-0.00729722 0.0399235 0)
(-0.0140342 0.0402173 0)
(-0.0196698 0.0376515 0)
(-0.0246585 0.034337 0)
(-0.0290059 0.0306564 0)
(-0.0327849 0.0267535 0)
(-0.0360975 0.0227069 0)
(-0.0390571 0.0185499 0)
(-0.0417872 0.0142704 0)
(-0.0444208 0.00980406 0)
(-0.0470983 0.00502111 0)
(-0.0499409 -0.00031794 0)
(-0.0530851 -0.00665686 0)
(-0.0565265 -0.0147252 0)
(-0.0598757 -0.0255305 0)
(-0.0620172 -0.0404466 0)
(-0.0594112 -0.0600563 0)
(-0.0508536 -0.0768674 0)
(-0.0224315 -0.0783237 0)
(-0.00231006 0.0315361 0)
(-0.00888192 0.0467788 0)
(-0.0167527 0.0465367 0)
(-0.0230632 0.0431282 0)
(-0.028482 0.0391051 0)
(-0.0330812 0.0348107 0)
(-0.0369933 0.0303813 0)
(-0.0403755 0.0259092 0)
(-0.0433874 0.0214523 0)
(-0.0462003 0.01702 0)
(-0.0490017 0.0125631 0)
(-0.0520208 0.00794464 0)
(-0.0556044 0.00291633 0)
(-0.0601913 -0.00300132 0)
(-0.0661394 -0.0105607 0)
(-0.0737574 -0.0213393 0)
(-0.0825821 -0.037831 0)
(-0.0871982 -0.0639644 0)
(-0.0860173 -0.0929559 0)
(-0.0406388 -0.124936 0)
(-0.00403947 0.036077 0)
(-0.01248 0.0557172 0)
(-0.0206568 0.0546748 0)
(-0.0273851 0.0503741 0)
(-0.0329961 0.0451389 0)
(-0.0377253 0.0396942 0)
(-0.0416604 0.0343428 0)
(-0.0449705 0.0292278 0)
(-0.0478519 0.024406 0)
(-0.0505371 0.0198864 0)
(-0.0533054 0.0156739 0)
(-0.0564927 0.0117285 0)
(-0.0605536 0.00797508 0)
(-0.0661095 0.00413953 0)
(-0.0742091 -0.000535873 0)
(-0.086161 -0.0082321 0)
(-0.103321 -0.0233767 0)
(-0.116619 -0.0594397 0)
(-0.125511 -0.11441 0)
(-0.0490579 -0.209771 0)
(-0.00258355 0.0507109 0)
(-0.0122308 0.060865 0)
(-0.0251547 0.0586007 0)
(-0.0327245 0.0525644 0)
(-0.0390448 0.047057 0)
(-0.043635 0.0416028 0)
(-0.0469895 0.0363015 0)
(-0.0495344 0.0312073 0)
(-0.0515916 0.0264047 0)
(-0.0534053 0.0219512 0)
(-0.0552229 0.0179653 0)
(-0.0573427 0.0144906 0)
(-0.0603003 0.0117442 0)
(-0.0650004 0.0097155 0)
(-0.0731126 0.00826563 0)
(-0.0864576 0.00459049 0)
(-0.110772 -0.00721338 0)
(-0.123996 -0.0566796 0)
(-0.139222 -0.154975 0)
(-0.0231305 -0.320211 0)
(-0.0112841 0.043958 0)
(-0.0289899 0.0853897 0)
(-0.0316935 0.0786441 0)
(-0.0401805 0.0705282 0)
(-0.0436964 0.0609184 0)
(-0.0457117 0.0516509 0)
(-0.0463433 0.0433025 0)
(-0.0462258 0.0360617 0)
(-0.0457266 0.0299062 0)
(-0.0450863 0.024715 0)
(-0.0446616 0.0206438 0)
(-0.0445489 0.0177232 0)
(-0.0453109 0.0165918 0)
(-0.0468055 0.017875 0)
(-0.0508964 0.0226698 0)
(-0.0536582 0.0266545 0)
(-0.068683 0.0235813 0)
(-0.0563403 -0.0439512 0)
(-0.0835166 -0.193267 0)
(0.0280747 -0.394132 0)
(-0.0732251 0.107455 0)
(-0.0568073 0.0679337 0)
(-0.0566206 0.0632842 0)
(-0.0381876 0.0541236 0)
(-0.022444 0.0449484 0)
(-0.00670808 0.0374465 0)
(0.00757289 0.0313823 0)
(0.020273 0.0262486 0)
(0.0310427 0.0219588 0)
(0.0405094 0.0181811 0)
(0.0480643 0.0155359 0)
(0.0554559 0.0132027 0)
(0.0609845 0.0128305 0)
(0.0695228 0.0124567 0)
(0.0737043 0.0147555 0)
(0.0980555 0.0121201 0)
(0.0894134 -0.000943137 0)
(0.143154 -0.0612908 0)
(0.0764346 -0.23376 0)
(0.10298 -0.404784 0)
(0.123187 0.142103 0)
(0.160839 0.0886085 0)
(0.241944 0.0654923 0)
(0.298196 0.0496628 0)
(0.341516 0.0382373 0)
(0.376598 0.0295043 0)
(0.404893 0.0228866 0)
(0.428573 0.0177199 0)
(0.446348 0.0139448 0)
(0.463524 0.0108589 0)
(0.472504 0.0086162 0)
(0.488892 0.0071821 0)
(0.488393 0.00502791 0)
(0.510675 0.00595638 0)
(0.497711 0.00162032 0)
(0.530459 0.00410333 0)
(0.495699 -0.00612913 0)
(0.518852 -0.0246976 0)
(0.389532 -0.0604691 0)
(0.267814 -0.146036 0)
)
;

boundaryField
{
    movingWall
    {
        type            fixedValue;
        value           uniform (1 0 0);
    }
    fixedWalls
    {
        type            noSlip;
    }
    frontAndBack
    {
        type            empty;
    }
}


// ************************************************************************* //
