/*--------------------------------*- C++ -*----------------------------------*\
  =========                 |
  \\      /  F ield         | OpenFOAM: The Open Source CFD Toolbox
   \\    /   O peration     | Website:  https://openfoam.org
    \\  /    A nd           | Version:  10
     \\/     M anipulation  |
\*---------------------------------------------------------------------------*/
FoamFile
{
    format      ascii;
    class       surfaceScalarField;
    location    "4.775";
    object      phi;
}
// * * * * * * * * * * * * * * * * * * * * * * * * * * * * * * * * * * * * * //

dimensions      [0 3 -1 0 0 0 0];

internalField   nonuniform List<scalar> 
890
(
0.00984478
0.000155221
0.00972238
0.000122402
0.00946371
0.000258664
0.00941324
5.04774e-05
0.000144388
0.00926885
0.0101218
3.3467e-05
0.0102032
4.0913e-05
0.0104046
5.73191e-05
0.0104651
-1.00636e-05
-7.48824e-05
0.0106844
0.0100728
-3.93272e-05
0.0102122
-9.85072e-05
0.0103802
-0.000110666
0.0105226
-0.000152428
-0.000192553
0.0106402
0.0100903
-0.000129627
0.0102085
-0.000216748
0.0103352
-0.000237374
0.0104199
-0.000237074
-0.000252107
0.0104794
0.00987037
0.00965363
0.00941625
0.00917918
0.00892707
0.00926538
-8.61718e-05
8.96371e-05
0.00928705
-0.000264624
0.00024296
0.00939555
-0.000354635
0.00024613
0.00959104
-0.000453182
0.000257699
0.00983385
-0.00061605
0.000373234
0.0100902
-0.000843522
0.000587201
0.0103393
-0.00115887
0.000909765
0.0105686
-0.00153189
0.00130254
0.0107539
-0.00192213
0.00173681
0.0108493
-0.00229807
0.00220267
0.0108803
-0.00262069
0.00258974
0.0108289
-0.00284284
0.00289428
0.0106537
-0.00294729
0.00312241
0.0103807
-0.00285311
0.00312613
0.0100386
-0.0026418
0.00298392
0.00964003
-0.00238163
0.00278019
0.00918367
-0.00194847
0.00240483
0.00867669
-0.00142913
0.00193612
0.00817495
-0.000973829
0.00147556
0.00768075
-0.000487795
0.000982
0.00715623
6.15497e-05
0.000462966
0.00662575
0.000497822
3.26571e-05
0.00617344
0.000715132
-0.000262819
0.00586354
0.000755922
-0.000446026
0.00572254
0.000762205
-0.0006212
0.00572308
0.000811228
-0.000811767
0.00580928
0.000876477
-0.000962681
0.00592274
0.00089906
-0.00101252
0.00602331
0.00084965
-0.000950218
0.006094
0.000738546
-0.000809237
0.00613514
0.000594822
-0.00063596
0.00615492
0.000447255
-0.000467041
0.00616237
0.000315491
-0.000322934
0.00616406
0.000209009
-0.000210701
0.00616374
0.000129566
-0.000129247
0.00616308
7.42733e-05
-7.36159e-05
0.00616261
3.82629e-05
-3.77872e-05
0.0061624
1.62899e-05
-1.608e-05
0.00616242
3.95187e-06
-3.96981e-06
0.00616236
-2.28174e-06
2.34102e-06
0.00616227
-4.73994e-06
4.82854e-06
0.00616213
-5.42618e-06
5.56263e-06
0.00616197
-4.71725e-06
4.87401e-06
0.0061618
-4.24986e-06
4.42243e-06
-2.76394e-06
2.87802e-06
0.010753
-0.00015477
0.0107812
-0.00029287
0.0108372
-0.000410619
0.0109321
-0.000548042
0.0110085
-0.000692481
0.0110645
-0.000899508
0.0110631
-0.00115744
0.0109977
-0.00146657
0.0108699
-0.00179425
0.010647
-0.0020752
0.0103844
-0.00235813
0.0100467
-0.0025051
0.00957847
-0.00247908
0.00904999
-0.00232462
0.00848289
-0.0020747
0.00786394
-0.00176269
0.00723224
-0.00131677
0.00660251
-0.000799398
0.00597208
-0.0003434
0.00535332
0.000130963
0.00480282
0.000612051
0.00440082
0.000899826
0.00419759
0.000918356
0.00416643
0.000787085
0.00426425
0.000664389
0.00445761
0.000617865
0.00471065
0.00062344
0.00498397
0.000625733
0.00524348
0.000590146
0.0054679
0.000514125
0.00564934
0.000413382
0.00578886
0.000307737
0.00589186
0.000212492
0.00596518
0.000135686
0.00601559
7.91509e-05
0.00604903
4.08414e-05
0.00607035
1.6943e-05
0.00608331
3.3245e-06
0.00609087
-3.60591e-06
0.00609501
-6.41881e-06
0.00609706
-6.7896e-06
0.00609791
-6.27717e-06
0.00609815
-4.95848e-06
0.00609806
-4.15996e-06
-2.57834e-06
0.0107403
-0.000254811
0.01078
-0.000332609
0.0108113
-0.000441934
0.0108219
-0.000558587
0.0108039
-0.000674507
0.0107546
-0.000850168
0.0106209
-0.00102377
0.010431
-0.00127666
0.0101746
-0.00153785
0.00987146
-0.00177207
0.00952561
-0.00201227
0.00898927
-0.00196876
0.00834699
-0.00183681
0.00769605
-0.00167369
0.00692639
-0.00130503
0.00608463
-0.000920927
0.00532073
-0.000552878
0.00467381
-0.000152474
0.00412316
0.000207249
0.00371203
0.000542088
0.00352316
0.000800928
0.00354515
0.000877833
0.00368228
0.000781222
0.00384984
0.00061953
0.00402302
0.000491205
0.00421662
0.000424264
0.0044423
0.000397763
0.00469051
0.000377528
0.00493869
0.000341965
0.00516504
0.000287773
0.00535567
0.00022275
0.00550553
0.000157883
0.00561624
0.00010178
0.00569336
5.85644e-05
0.00574402
2.84915e-05
0.00577524
9.61842e-06
0.00579314
-9.55793e-07
0.00580249
-6.02237e-06
0.00580658
-7.69523e-06
0.00580772
-7.563e-06
0.00580741
-6.47781e-06
0.00580641
-5.2823e-06
0.00580534
-3.88696e-06
0.00580424
-3.06244e-06
-1.82568e-06
0.0105132
-0.000288523
0.0104963
-0.000315769
0.0104403
-0.000385954
0.0103128
-0.000431088
0.0101459
-0.000507559
0.00989096
-0.000595235
0.0095495
-0.000682313
0.00911966
-0.000846822
0.00853517
-0.000953361
0.00792719
-0.00116409
0.00723262
-0.0013177
0.00632111
-0.00105724
0.00516071
-0.00067641
0.00385477
-0.00036774
0.00271241
-0.000162673
0.00186693
-7.54496e-05
0.00134583
-3.17782e-05
0.00112891
6.44508e-05
0.00114424
0.000191912
0.00136161
0.000324727
0.00174885
0.000413687
0.00220401
0.000422665
0.00262281
0.000362422
0.00296014
0.000282206
0.00323189
0.000219455
0.00347344
0.000182707
0.00370892
0.000162291
0.00394131
0.000145134
0.00415964
0.000123641
0.00435001
9.74014e-05
0.00450329
6.94666e-05
0.00461737
4.38004e-05
0.00469569
2.34678e-05
0.00474499
9.25538e-06
0.00477315
3.38344e-07
0.00478671
-3.9462e-06
0.0047915
-5.74562e-06
0.00479143
-5.95002e-06
0.00478908
-5.34464e-06
0.00478595
-4.43154e-06
0.00478291
-3.43767e-06
0.00478022
-2.59166e-06
0.00477815
-1.82083e-06
0.00477644
-1.35079e-06
-7.65954e-07
0.00863855
0.00832278
0.00793682
0.00750574
0.00699818
0.00640294
0.00572063
0.00487381
0.00392045
0.00275636
0.00143865
0.000381411
-0.000294998
-0.000662738
-0.000825411
-0.000900861
-0.000932639
-0.000868189
-0.000676276
-0.00035155
6.21374e-05
0.000484802
0.000847224
0.00112943
0.00134889
0.00153159
0.00169388
0.00183902
0.00196266
0.00206006
0.00212953
0.00217333
0.00219679
0.00220605
0.00220639
0.00220244
0.0021967
0.00219075
0.0021854
0.00218097
0.00217753
0.00217494
0.00217312
0.00217177
1.69099e-05
-1.69099e-05
-0.000125188
0.000142098
-0.0006099
0.000484711
-0.00143457
0.000824674
-0.00236315
0.000928574
-0.00318025
0.0008171
-0.0037918
0.000611551
-0.00417141
0.000379608
-0.00429268
0.00012128
-0.00417164
-0.000121047
-0.00382941
-0.000342232
-0.00328487
-0.000544537
-0.00257876
-0.00070611
-0.00176656
-0.000812203
-0.000898888
-0.000867669
-1.43281e-05
-0.000884559
0.000850341
-0.000864669
0.00166203
-0.000811687
0.0023877
-0.00072567
0.00297796
-0.00059026
0.00339491
-0.000416952
0.00360697
-0.000212058
0.00359414
1.28254e-05
0.00339181
0.000202332
0.00307412
0.000317688
0.00274012
0.000334005
0.00246188
0.000278234
0.00226597
0.000195913
0.00214726
0.000118716
0.00208756
5.96965e-05
0.0020669
2.06561e-05
0.00206869
-1.79112e-06
0.00208072
-1.20258e-05
0.00209631
-1.55884e-05
0.00211169
-1.53818e-05
0.00212523
-1.35353e-05
0.00213641
-1.11883e-05
0.0021453
-8.88448e-06
0.00215212
-6.82516e-06
0.00215725
-5.12262e-06
0.00216098
-3.73543e-06
0.00216369
-2.70667e-06
0.00216554
-1.85551e-06
0.0021669
-1.35709e-06
-7.67187e-07
-0.000339363
0.000322453
-0.000946179
0.000748914
-0.00155955
0.00109808
-0.00206027
0.0013254
-0.00245992
0.00132823
-0.00273544
0.00109262
-0.00285713
0.000733237
-0.00281652
0.000338999
-0.00261174
-8.34973e-05
-0.0022499
-0.000482892
-0.00171727
-0.00087486
-0.00103214
-0.00122966
-0.000229442
-0.00150881
0.000626743
-0.00166839
0.00150806
-0.00174898
0.00237978
-0.00175628
0.00319441
-0.0016793
0.00393359
-0.00155087
0.00458245
-0.00137453
0.00511538
-0.00112319
0.00552802
-0.000829593
0.00586006
-0.000544104
0.00612674
-0.000253854
0.00626255
6.65292e-05
0.00621661
0.00036363
0.00600176
0.00054885
0.0056966
0.000583392
0.00539033
0.000502188
0.00513989
0.00036915
0.00496252
0.000237067
0.00485005
0.000133126
0.00478549
6.27687e-05
0.00475285
2.06126e-05
0.00473934
-2.07068e-06
0.00473611
-1.21588e-05
0.0047383
-1.57236e-05
0.0047429
-1.57892e-05
0.00474822
-1.42018e-05
0.00475332
-1.19242e-05
0.00475782
-9.62026e-06
0.00476151
-7.42468e-06
0.00476449
-5.68932e-06
0.00476668
-4.04505e-06
0.00476844
-3.11869e-06
-1.84306e-06
-0.000454126
0.000776579
-0.000561751
0.00085654
-0.000504804
0.00104113
-0.000373236
0.00119383
-0.0001947
0.00114969
2.28113e-05
0.000875105
0.000281072
0.000474976
0.000589738
3.0333e-05
0.00100269
-0.000496454
0.00152795
-0.00100815
0.00212826
-0.00147517
0.00279697
-0.00189838
0.00350968
-0.00222152
0.00420895
-0.00236766
0.00488307
-0.0024231
0.0055266
-0.00239982
0.0060789
-0.0022316
0.00651052
-0.00198248
0.00684313
-0.00170714
0.00707534
-0.0013554
0.00718879
-0.000943043
0.00722077
-0.000576081
0.00724939
-0.000282478
0.00730656
9.35782e-06
0.00732303
0.000347164
0.00723989
0.00063199
0.00704851
0.000774771
0.00679263
0.000758068
0.00652992
0.000631855
0.00630186
0.000465132
0.00612549
0.000309499
0.00599976
0.000188499
0.00591533
0.000105039
0.00586114
5.21199e-05
0.00582818
2.07965e-05
0.005809
3.46122e-06
0.00579886
-5.65358e-06
0.00579418
-9.52384e-06
0.00579263
-1.03645e-05
0.00579278
-9.77886e-06
0.00579371
-8.35564e-06
0.00579497
-6.94301e-06
0.00579613
-5.20866e-06
0.00579725
-4.23442e-06
-2.59144e-06
-9.96633e-05
0.000876242
0.000230109
0.000526768
0.000708099
0.000563141
0.0012907
0.000611227
0.0019178
0.000522599
0.00253019
0.00026271
0.00313
-0.000124836
0.00372982
-0.000569481
0.00431447
-0.00108111
0.00492068
-0.00161435
0.00551693
-0.00207142
0.00609324
-0.00247468
0.00666681
-0.0027951
0.00719371
-0.00289455
0.00763135
-0.00286074
0.00799417
-0.00276264
0.00826428
-0.00250171
0.00841416
-0.00213236
0.00845679
-0.00174977
0.0084219
-0.00132051
0.00831365
-0.000834799
0.00813447
-0.000396894
0.00793583
-8.38383e-05
0.00777487
0.000170313
0.00767704
0.000444996
0.00758956
0.000719467
0.00745874
0.00090559
0.00727031
0.000946503
0.00704543
0.000856735
0.00681774
0.000692822
0.00661466
0.000512579
0.00645031
0.000352849
0.00632702
0.000228328
0.00624
0.000139142
0.0061817
7.9094e-05
0.00614451
4.06456e-05
0.00612161
1.7254e-05
0.00610819
3.89358e-06
0.00610073
-2.90335e-06
0.0060969
-5.9456e-06
0.00609514
-6.6022e-06
0.00609453
-6.33451e-06
0.00609446
-5.1403e-06
0.00609468
-4.4474e-06
-2.8352e-06
0.000965879
0.00173561
0.00254488
0.0034138
0.00430964
0.00515955
0.00594448
0.00667754
0.00733325
0.00792157
0.00843989
0.00885949
0.00918679
0.00941837
0.00954155
0.00955911
0.00946223
0.00926598
0.00899178
0.00865327
0.00828144
0.0079172
0.00757054
0.00729483
0.00711862
0.00702633
0.00696923
0.00690321
0.00680973
0.00669332
0.00656994
0.00645574
0.00636114
0.00628958
0.00623943
0.00620645
0.00618592
0.00617374
0.00616686
0.00616326
0.00616148
0.00616071
0.00616045
0.00616042
)
;

boundaryField
{
    inlet
    {
        type            calculated;
        value           nonuniform List<scalar> 5(-0.01 -0.01 -0.01 -0.01 -0.01);
    }
    outlet
    {
        type            calculated;
        value           nonuniform List<scalar> 10(0.00616169 0.00609787 0.00580349 0.00477538 0.002171 0.00216767 0.00476952 0.005798 0.00609492 0.00616046);
    }
    upperWall
    {
        type            calculated;
        value           uniform 0;
    }
    lowerWall
    {
        type            calculated;
        value           uniform 0;
    }
    frontAndBack
    {
        type            empty;
        value           nonuniform List<scalar> 0();
    }
}


// ************************************************************************* //
