/*--------------------------------*- C++ -*----------------------------------*\
  =========                 |
  \\      /  F ield         | OpenFOAM: The Open Source CFD Toolbox
   \\    /   O peration     | Website:  https://openfoam.org
    \\  /    A nd           | Version:  10
     \\/     M anipulation  |
\*---------------------------------------------------------------------------*/
FoamFile
{
    format      ascii;
    class       volVectorField;
    location    "1.45";
    object      U;
}
// * * * * * * * * * * * * * * * * * * * * * * * * * * * * * * * * * * * * * //

dimensions      [0 1 -1 0 0 0 0];

internalField   nonuniform List<vector> 
475
(
(0.985257 0.0196401 0)
(0.961954 0.00527019 0)
(0.973003 0.0309418 0)
(0.912875 0.0228225 0)
(0.947564 0.0198392 0)
(1.0027 0.00379245 0)
(1.01016 0.0182192 0)
(1.03005 0.021643 0)
(1.05552 0.0203396 0)
(1.07628 -0.00116732 0)
(1.00153 -0.00229398 0)
(1.00485 0.00885662 0)
(1.02923 -0.0120752 0)
(1.04579 -0.0181705 0)
(1.06138 -0.00976766 0)
(0.999364 -0.0115379 0)
(1.00875 -0.0200992 0)
(1.0297 -0.0171497 0)
(1.03371 -0.0246276 0)
(1.04065 -0.038743 0)
(0.981597 -0.0100415 0)
(0.966257 -0.0167628 0)
(0.955173 -0.0240242 0)
(0.934856 -0.0241511 0)
(0.902244 -0.0224907 0)
(0.902339 0.0183438 0)
(0.983902 -0.0392105 0)
(1.07029 -0.128177 0)
(1.11499 -0.25792 0)
(1.12752 -0.395347 0)
(1.07587 -0.440497 0)
(0.939225 -0.41692 0)
(0.781842 -0.357886 0)
(0.688945 -0.251146 0)
(0.658034 -0.130287 0)
(0.64361 -0.0441103 0)
(0.624893 -0.00377446 0)
(0.603217 0.00689299 0)
(0.584208 0.00595571 0)
(0.570258 0.00319641 0)
(0.561031 0.00141393 0)
(0.555327 0.000625767 0)
(0.551943 0.000343991 0)
(0.549977 0.000279681 0)
(0.548848 0.000288285 0)
(0.548218 0.000307862 0)
(0.547871 0.000336351 0)
(0.547673 0.000342829 0)
(0.547571 0.000326437 0)
(0.547523 0.0002953 0)
(0.547502 0.000256978 0)
(0.547494 0.000217045 0)
(0.547491 0.000179103 0)
(0.547492 0.000145128 0)
(0.547493 0.000115918 0)
(0.547495 9.15374e-05 0)
(0.547497 7.1623e-05 0)
(0.5475 5.55973e-05 0)
(0.5475 4.28599e-05 0)
(0.547503 3.28099e-05 0)
(0.547502 2.49664e-05 0)
(0.547506 1.8872e-05 0)
(0.547502 1.41604e-05 0)
(0.547507 1.06288e-05 0)
(0.547504 7.79295e-06 0)
(0.547505 5.73742e-06 0)
(0.547508 4.22157e-06 0)
(0.547505 2.63967e-06 0)
(0.547507 2.06507e-06 0)
(0.547506 6.53818e-07 0)
(1.08603 -0.00508467 0)
(1.12762 -0.0435377 0)
(1.15322 -0.0933905 0)
(1.13307 -0.199837 0)
(1.0387 -0.321625 0)
(0.869735 -0.311971 0)
(0.690071 -0.210451 0)
(0.551959 -0.160424 0)
(0.47065 -0.149377 0)
(0.449764 -0.11731 0)
(0.471365 -0.0695524 0)
(0.502791 -0.0316861 0)
(0.525619 -0.0111742 0)
(0.537995 -0.00298492 0)
(0.543767 -0.000570371 0)
(0.546175 -4.94631e-05 0)
(0.547026 8.53411e-05 0)
(0.547267 0.000222684 0)
(0.547335 0.000354535 0)
(0.547347 0.000446527 0)
(0.547341 0.000487691 0)
(0.547325 0.000474264 0)
(0.547305 0.000434309 0)
(0.547288 0.000382249 0)
(0.547276 0.000326398 0)
(0.547271 0.000272398 0)
(0.547273 0.000223182 0)
(0.547278 0.000180072 0)
(0.547284 0.00014346 0)
(0.547292 0.00011311 0)
(0.547299 8.84195e-05 0)
(0.547305 6.86058e-05 0)
(0.547312 5.28789e-05 0)
(0.547315 4.04842e-05 0)
(0.547321 3.08039e-05 0)
(0.547321 2.33229e-05 0)
(0.547327 1.75424e-05 0)
(0.547324 1.31607e-05 0)
(0.54733 9.83367e-06 0)
(0.547328 7.21929e-06 0)
(0.54733 5.33855e-06 0)
(0.547333 3.87161e-06 0)
(0.54733 2.39508e-06 0)
(0.547333 1.90329e-06 0)
(0.547332 5.43794e-07 0)
(1.08616 -0.0415758 0)
(1.08139 -0.0855374 0)
(1.07498 -0.116268 0)
(1.07957 -0.16766 0)
(1.02637 -0.212575 0)
(0.933455 -0.198814 0)
(0.892954 -0.142979 0)
(0.891971 -0.116461 0)
(0.842243 -0.125698 0)
(0.746008 -0.11904 0)
(0.664347 -0.083866 0)
(0.615568 -0.0454893 0)
(0.588089 -0.0204364 0)
(0.571882 -0.00789438 0)
(0.56194 -0.00252486 0)
(0.555606 -0.000448921 0)
(0.55151 0.000306946 0)
(0.548859 0.000600008 0)
(0.547148 0.000700607 0)
(0.546082 0.000706327 0)
(0.545443 0.000659952 0)
(0.545082 0.000585325 0)
(0.544892 0.000500784 0)
(0.544807 0.000416681 0)
(0.54478 0.000339548 0)
(0.544783 0.000272625 0)
(0.544797 0.000216278 0)
(0.544815 0.000169849 0)
(0.544833 0.000132294 0)
(0.54485 0.00010236 0)
(0.544865 7.8774e-05 0)
(0.544878 6.02976e-05 0)
(0.544889 4.59433e-05 0)
(0.544897 3.477e-05 0)
(0.544905 2.62127e-05 0)
(0.544907 1.96342e-05 0)
(0.544915 1.46416e-05 0)
(0.544914 1.09664e-05 0)
(0.544921 8.06373e-06 0)
(0.544919 5.98327e-06 0)
(0.544922 4.41568e-06 0)
(0.544925 3.0683e-06 0)
(0.544922 1.96469e-06 0)
(0.544925 1.52893e-06 0)
(0.544925 3.2067e-07 0)
(1.05931 -0.0388166 0)
(1.04452 -0.0550996 0)
(1.01251 -0.0965374 0)
(0.992164 -0.116037 0)
(0.935826 -0.126196 0)
(0.827166 -0.154669 0)
(0.732105 -0.160232 0)
(0.678201 -0.110414 0)
(0.631562 -0.0329825 0)
(0.57916 0.0217813 0)
(0.538824 0.0390132 0)
(0.518665 0.0352581 0)
(0.511807 0.0262486 0)
(0.51127 0.018236 0)
(0.512867 0.0123141 0)
(0.514686 0.0082148 0)
(0.516126 0.00547069 0)
(0.517139 0.00364913 0)
(0.517829 0.00246056 0)
(0.518303 0.00168874 0)
(0.518638 0.0011849 0)
(0.518881 0.000850991 0)
(0.519061 0.000624823 0)
(0.519198 0.000467141 0)
(0.519306 0.000353074 0)
(0.519394 0.000267668 0)
(0.519466 0.000202763 0)
(0.519525 0.000153286 0)
(0.519572 0.000115644 0)
(0.51961 8.70706e-05 0)
(0.51964 6.54602e-05 0)
(0.519663 4.90312e-05 0)
(0.519682 3.66678e-05 0)
(0.519695 2.71521e-05 0)
(0.519708 2.01707e-05 0)
(0.519713 1.48109e-05 0)
(0.519723 1.08678e-05 0)
(0.519723 8.26064e-06 0)
(0.519731 5.74283e-06 0)
(0.51973 4.53766e-06 0)
(0.519733 3.36311e-06 0)
(0.519736 1.93144e-06 0)
(0.519735 1.56032e-06 0)
(0.519738 1.14409e-06 0)
(0.519737 5.45063e-08 0)
(0.869774 -0.0339732 0)
(0.827726 -0.0371129 0)
(0.767418 -0.0436966 0)
(0.6868 -0.0732136 0)
(0.5869 -0.0740603 0)
(0.483755 -0.0314622 0)
(0.395435 0.000881373 0)
(0.330766 0.000949894 0)
(0.294668 -0.00959367 0)
(0.286003 -0.0151578 0)
(0.293252 -0.0146346 0)
(0.30424 -0.0115255 0)
(0.313547 -0.00776067 0)
(0.320524 -0.00455197 0)
(0.325666 -0.0023139 0)
(0.329432 -0.000928645 0)
(0.332186 -0.000140551 0)
(0.334213 0.000261697 0)
(0.335723 0.000430758 0)
(0.336861 0.000465277 0)
(0.337728 0.000428761 0)
(0.338392 0.000361496 0)
(0.338902 0.000288019 0)
(0.339293 0.00022165 0)
(0.339591 0.000167324 0)
(0.339818 0.000124975 0)
(0.33999 9.27788e-05 0)
(0.340118 6.86379e-05 0)
(0.340215 5.0686e-05 0)
(0.340287 3.7376e-05 0)
(0.340341 2.75259e-05 0)
(0.340382 2.01835e-05 0)
(0.340412 1.47833e-05 0)
(0.340433 1.071e-05 0)
(0.34045 7.84172e-06 0)
(0.340461 5.62753e-06 0)
(0.340471 4.11769e-06 0)
(0.340475 3.11159e-06 0)
(0.340483 2.05551e-06 0)
(0.340483 1.79578e-06 0)
(0.340488 1.14838e-06 0)
(0.34049 5.47636e-07 0)
(0.340489 7.11109e-07 0)
(0.340493 3.20807e-07 0)
(0.340492 -1.84505e-07 0)
(-0.0451818 -0.000397575 0)
(-0.136134 0.0314477 0)
(-0.2303 0.028496 0)
(-0.279539 0.0141743 0)
(-0.262473 -0.014048 0)
(-0.18929 -0.0400446 0)
(-0.0770155 -0.051603 0)
(0.0394525 -0.0490583 0)
(0.142293 -0.0385961 0)
(0.2211 -0.0262884 0)
(0.275693 -0.0156711 0)
(0.310146 -0.00798519 0)
(0.329951 -0.00314541 0)
(0.3402 -0.000484442 0)
(0.344785 0.000766367 0)
(0.346298 0.00121433 0)
(0.346298 0.00125161 0)
(0.345641 0.0011037 0)
(0.34478 0.000902841 0)
(0.343936 0.000712928 0)
(0.343193 0.000549507 0)
(0.342578 0.000417097 0)
(0.342086 0.000313495 0)
(0.341699 0.000233896 0)
(0.341402 0.000173564 0)
(0.341175 0.000128389 0)
(0.341003 9.48564e-05 0)
(0.340873 7.00467e-05 0)
(0.340776 5.16467e-05 0)
(0.340702 3.79486e-05 0)
(0.340648 2.77358e-05 0)
(0.340607 2.02202e-05 0)
(0.340578 1.46841e-05 0)
(0.340556 1.07675e-05 0)
(0.34054 7.84373e-06 0)
(0.340527 5.83981e-06 0)
(0.34052 4.26758e-06 0)
(0.340511 2.99141e-06 0)
(0.340509 2.33538e-06 0)
(0.340503 1.35049e-06 0)
(0.340502 1.02077e-06 0)
(0.3405 9.62186e-07 0)
(0.340497 2.66097e-07 0)
(0.340499 3.75405e-07 0)
(0.340497 4.20304e-07 0)
(-0.0124516 0.178314 0)
(-0.127817 0.158437 0)
(-0.256738 0.128716 0)
(-0.28164 0.0361801 0)
(-0.243914 -0.0667819 0)
(-0.149108 -0.154337 0)
(-0.0146428 -0.188387 0)
(0.120663 -0.179112 0)
(0.239003 -0.145664 0)
(0.331694 -0.106671 0)
(0.399389 -0.0719445 0)
(0.445858 -0.0450271 0)
(0.476027 -0.0261654 0)
(0.494762 -0.0140139 0)
(0.506021 -0.00674823 0)
(0.512604 -0.00269746 0)
(0.516344 -0.000603616 0)
(0.518399 0.000371704 0)
(0.51949 0.000750731 0)
(0.520026 0.000823867 0)
(0.520246 0.000763429 0)
(0.520303 0.000654199 0)
(0.520277 0.000537697 0)
(0.520215 0.000429854 0)
(0.520142 0.000337205 0)
(0.520071 0.000261181 0)
(0.520007 0.000200549 0)
(0.519952 0.000153004 0)
(0.519906 0.000116055 0)
(0.519868 8.75248e-05 0)
(0.519839 6.56039e-05 0)
(0.519815 4.89976e-05 0)
(0.519797 3.64077e-05 0)
(0.519783 2.71656e-05 0)
(0.519774 2.01237e-05 0)
(0.519763 1.50454e-05 0)
(0.51976 1.12235e-05 0)
(0.519751 8.04135e-06 0)
(0.519752 6.23278e-06 0)
(0.519746 4.18015e-06 0)
(0.519745 2.88389e-06 0)
(0.519745 2.57367e-06 0)
(0.519742 1.27768e-06 0)
(0.519743 9.88291e-07 0)
(0.519742 7.09288e-07 0)
(-0.020336 0.116614 0)
(-0.14785 0.24373 0)
(-0.188866 0.156679 0)
(-0.175476 0.0126503 0)
(-0.10011 -0.162178 0)
(0.00702692 -0.287698 0)
(0.138561 -0.332881 0)
(0.254557 -0.307068 0)
(0.344894 -0.246252 0)
(0.408329 -0.180856 0)
(0.453553 -0.124557 0)
(0.485722 -0.0811971 0)
(0.507565 -0.0504032 0)
(0.521709 -0.029929 0)
(0.530636 -0.0170281 0)
(0.536234 -0.00923914 0)
(0.53974 -0.00470419 0)
(0.541923 -0.00215371 0)
(0.543262 -0.000777688 0)
(0.54407 -8.335e-05 0)
(0.544552 0.000237217 0)
(0.544826 0.000363839 0)
(0.544972 0.000385709 0)
(0.545039 0.000357485 0)
(0.545063 0.000309723 0)
(0.545064 0.000258006 0)
(0.545053 0.000209506 0)
(0.545036 0.000167026 0)
(0.545019 0.000131258 0)
(0.545002 0.000101958 0)
(0.544987 7.84661e-05 0)
(0.544974 6.00184e-05 0)
(0.544964 4.56816e-05 0)
(0.544955 3.47238e-05 0)
(0.54495 2.62546e-05 0)
(0.544943 1.98262e-05 0)
(0.544942 1.48723e-05 0)
(0.544934 1.09527e-05 0)
(0.544936 8.20545e-06 0)
(0.544931 5.84468e-06 0)
(0.544931 4.18726e-06 0)
(0.544932 3.26726e-06 0)
(0.544928 1.96252e-06 0)
(0.54493 1.55294e-06 0)
(0.544928 7.28314e-07 0)
(-0.0426122 0.328739 0)
(-0.00411817 0.33615 0)
(0.0668784 0.167827 0)
(0.16558 -0.0368488 0)
(0.27778 -0.251852 0)
(0.38123 -0.401925 0)
(0.463032 -0.446339 0)
(0.526774 -0.386875 0)
(0.564848 -0.29052 0)
(0.567775 -0.206831 0)
(0.556636 -0.14279 0)
(0.548139 -0.0939564 0)
(0.544723 -0.0583478 0)
(0.54408 -0.0343609 0)
(0.544454 -0.0194392 0)
(0.545089 -0.010645 0)
(0.545704 -0.00561833 0)
(0.546215 -0.00279621 0)
(0.546608 -0.0012374 0)
(0.546897 -0.000389832 0)
(0.547104 5.04256e-05 0)
(0.547241 0.000241679 0)
(0.547318 0.0003087 0)
(0.547362 0.000315295 0)
(0.547384 0.000291895 0)
(0.547393 0.000255121 0)
(0.547393 0.000214812 0)
(0.547388 0.000176184 0)
(0.547381 0.000141685 0)
(0.547373 0.000112251 0)
(0.547366 8.7924e-05 0)
(0.54736 6.82932e-05 0)
(0.547355 5.26863e-05 0)
(0.54735 4.04518e-05 0)
(0.547348 3.08624e-05 0)
(0.547342 2.34337e-05 0)
(0.547343 1.76775e-05 0)
(0.547337 1.3171e-05 0)
(0.54734 9.86114e-06 0)
(0.547335 7.18684e-06 0)
(0.547335 5.19801e-06 0)
(0.547337 3.92413e-06 0)
(0.547333 2.4622e-06 0)
(0.547335 1.91134e-06 0)
(0.547334 7.46447e-07 0)
(0.0154237 0.156332 0)
(0.303825 0.110083 0)
(0.461832 -0.011447 0)
(0.615634 -0.17636 0)
(0.753082 -0.348833 0)
(0.82178 -0.474021 0)
(0.808755 -0.52052 0)
(0.776002 -0.444056 0)
(0.761279 -0.29735 0)
(0.731657 -0.175397 0)
(0.680275 -0.107795 0)
(0.629239 -0.0729171 0)
(0.592418 -0.050538 0)
(0.570145 -0.0338019 0)
(0.558058 -0.0214612 0)
(0.552087 -0.0129751 0)
(0.549361 -0.00748762 0)
(0.548198 -0.0040927 0)
(0.547739 -0.00206449 0)
(0.547577 -0.000896492 0)
(0.547513 -0.00025662 0)
(0.547492 7.40254e-05 0)
(0.547507 0.000223479 0)
(0.547521 0.000272588 0)
(0.547528 0.000270846 0)
(0.547529 0.000245834 0)
(0.547528 0.000212005 0)
(0.547526 0.000176869 0)
(0.547523 0.000144143 0)
(0.54752 0.00011547 0)
(0.547518 9.13092e-05 0)
(0.547515 7.14825e-05 0)
(0.547514 5.55046e-05 0)
(0.547512 4.28248e-05 0)
(0.547513 3.28156e-05 0)
(0.547509 2.49945e-05 0)
(0.547511 1.89123e-05 0)
(0.547506 1.41767e-05 0)
(0.54751 1.06429e-05 0)
(0.547507 7.79286e-06 0)
(0.547507 5.7003e-06 0)
(0.547509 4.2375e-06 0)
(0.547506 2.67194e-06 0)
(0.547508 2.0821e-06 0)
(0.547507 7.24953e-07 0)
)
;

boundaryField
{
    inlet
    {
        type            fixedValue;
        value           uniform (1 0 0);
    }
    outlet
    {
        type            zeroGradient;
    }
    upperWall
    {
        type            noSlip;
    }
    lowerWall
    {
        type            noSlip;
    }
    frontAndBack
    {
        type            empty;
    }
}


// ************************************************************************* //
