/*--------------------------------*- C++ -*----------------------------------*\
  =========                 |
  \\      /  F ield         | OpenFOAM: The Open Source CFD Toolbox
   \\    /   O peration     | Website:  https://openfoam.org
    \\  /    A nd           | Version:  10
     \\/     M anipulation  |
\*---------------------------------------------------------------------------*/
FoamFile
{
    format      ascii;
    class       volScalarField;
    location    "6.65";
    object      p;
}
// * * * * * * * * * * * * * * * * * * * * * * * * * * * * * * * * * * * * * //

dimensions      [0 2 -2 0 0 0 0];

internalField   nonuniform List<scalar> 
400
(
1.74273e-07
-2.01866e-05
2.88346e-05
0.000123231
0.00026958
0.000469689
0.000726056
0.0010415
0.00141809
0.00185626
0.00235363
0.00290351
0.00349326
0.0041027
0.00470287
0.00525666
0.00572107
0.00605332
0.0062441
0.00621981
2.22578e-05
1.19083e-06
5.51061e-05
0.000150011
0.000294026
0.000489745
0.000740174
0.00104848
0.00141707
0.00184685
0.00233604
0.00287869
0.00346255
0.0040694
0.00467047
0.00522852
0.00569907
0.00603789
0.00623784
0.00620712
-3.35852e-05
-6.18683e-05
-9.69696e-06
8.14974e-05
0.000220651
0.000410648
0.000655087
0.000958033
0.00132313
0.00175275
0.00224691
0.00280166
0.00340785
0.00404696
0.00468954
0.00529459
0.00581036
0.00618215
0.00640052
0.00634805
-0.00014809
-0.00018155
-0.000132466
-4.69274e-05
8.49201e-05
0.000266428
0.0005021
0.000797355
0.0011577
0.001588
0.00209122
0.00266669
0.00330773
0.00399964
0.00471201
0.0053986
0.00599519
0.00642715
0.00668054
0.00659786
-0.000327413
-0.000365595
-0.000321336
-0.000243755
-0.00012204
4.77541e-05
0.000271268
0.000555633
0.000908791
0.00133896
0.00185352
0.00245686
0.00314705
0.00391354
0.00472741
0.00553638
0.00625939
0.00679007
0.00710257
0.00696828
-0.000570629
-0.000613893
-0.000576294
-0.000509408
-0.000401538
-0.000248136
-4.23515e-05
0.000224845
0.000564205
0.00098802
0.00150939
0.00214009
0.00288716
0.00374506
0.00469439
0.00567728
0.00659086
0.00728012
0.00769221
0.00746438
-0.000875199
-0.000924409
-0.000895496
-0.000842671
-0.00075351
-0.000623045
-0.000443389
-0.000203731
0.000109548
0.00051319
0.00102698
0.00167264
0.00246953
0.00342734
0.00454038
0.0057561
0.00695012
0.00789659
0.00848445
0.00809042
-0.00123795
-0.00129427
-0.00127624
-0.00124138
-0.00117682
-0.00107763
-0.000935435
-0.000738248
-0.000470179
-0.000110443
0.00036751
0.000996471
0.00181276
0.00284676
0.00413357
0.00563599
0.00722924
0.00860427
0.00951311
0.00885891
-0.00165482
-0.00171952
-0.00171446
-0.00170157
-0.00166802
-0.00160962
-0.00151857
-0.00138304
-0.00118647
-0.000905816
-0.00050952
4.54084e-05
0.000816096
0.00187146
0.00325175
0.00502966
0.00713433
0.00923351
0.0107116
0.00981424
-0.00212078
-0.00219511
-0.00220437
-0.00221679
-0.00222021
-0.00221222
-0.00218698
-0.00213483
-0.00204162
-0.00188661
-0.00163925
-0.00125459
-0.000667703
0.000209914
0.00148456
0.0032806
0.00583061
0.00906666
0.0115505
0.0108932
-0.00263015
-0.00271513
-0.00273842
-0.0027776
-0.00282202
-0.00287227
-0.00292627
-0.00297913
-0.00302304
-0.00304592
-0.00302958
-0.0029468
-0.00275586
-0.0024002
-0.00180776
-0.000791084
0.0013701
0.00564774
0.00979777
0.0113755
-0.00317768
-0.00327355
-0.00330724
-0.00337103
-0.00345653
-0.00356857
-0.00371053
-0.00388491
-0.0040948
-0.00434476
-0.00464318
-0.00500754
-0.00547889
-0.00617682
-0.0073562
-0.00903259
-0.00961546
-0.00545754
0.00114241
0.00735693
-0.00376082
-0.00386737
-0.00390397
-0.00398532
-0.00410517
-0.00427458
-0.004504
-0.004805
-0.00519531
-0.00570369
-0.00638032
-0.00731957
-0.0087098
-0.0109453
-0.0149367
-0.0209972
-0.0267846
-0.0238114
-0.0150387
-0.00324845
-0.00437665
-0.00448478
-0.00450304
-0.004585
-0.00472664
-0.0049433
-0.00524947
-0.00566602
-0.00622507
-0.00697994
-0.00802527
-0.0095364
-0.0118747
-0.0156656
-0.0223872
-0.0322504
-0.0431873
-0.0426159
-0.0336237
-0.0177073
-0.00505655
-0.00517669
-0.00515936
-0.00522774
-0.00536149
-0.00558998
-0.0059351
-0.00642511
-0.00710171
-0.00803243
-0.00933753
-0.0112191
-0.0141533
-0.0187675
-0.0268047
-0.0378044
-0.0509531
-0.0510786
-0.0434881
-0.0261051
-0.00588111
-0.00580674
-0.00567444
-0.00564529
-0.00574861
-0.00599155
-0.00638084
-0.00693339
-0.00768651
-0.008705
-0.0101133
-0.0120821
-0.0151136
-0.0196065
-0.0272586
-0.037004
-0.0475231
-0.0471738
-0.0419858
-0.0215677
-0.00637204
-0.00680264
-0.00651506
-0.0065305
-0.00653031
-0.00666453
-0.00694895
-0.0074166
-0.00810564
-0.0090646
-0.0104089
-0.0122517
-0.0149337
-0.0188166
-0.0249186
-0.0318179
-0.0386745
-0.037127
-0.0304946
-0.00238651
-0.00974872
-0.0072359
-0.00661445
-0.00604781
-0.00599174
-0.00619239
-0.00659215
-0.00715654
-0.00790427
-0.00884966
-0.0101206
-0.0117591
-0.014108
-0.0172101
-0.0216882
-0.0258599
-0.0292729
-0.0245353
-0.0119773
0.0327762
-0.00645976
-0.00946338
-0.00841662
-0.00845082
-0.00802031
-0.00780751
-0.00777711
-0.00796884
-0.00842279
-0.00911879
-0.0101697
-0.0115853
-0.0137655
-0.0165294
-0.0208774
-0.0242099
-0.0259686
-0.0129624
0.0144698
0.092458
-0.0316497
-0.00662687
-0.00514237
-0.00441543
-0.00423717
-0.00448258
-0.00502745
-0.00568668
-0.00655527
-0.00752612
-0.00888571
-0.0104809
-0.0127015
-0.0150473
-0.0173634
-0.0161217
-0.0078882
0.0252384
0.094022
0.226949
)
;

boundaryField
{
    movingWall
    {
        type            zeroGradient;
    }
    fixedWalls
    {
        type            zeroGradient;
    }
    frontAndBack
    {
        type            empty;
    }
}


// ************************************************************************* //
