/*--------------------------------*- C++ -*----------------------------------*\
  =========                 |
  \\      /  F ield         | OpenFOAM: The Open Source CFD Toolbox
   \\    /   O peration     | Website:  https://openfoam.org
    \\  /    A nd           | Version:  10
     \\/     M anipulation  |
\*---------------------------------------------------------------------------*/
FoamFile
{
    format      ascii;
    class       surfaceScalarField;
    location    "6.65";
    object      phi;
}
// * * * * * * * * * * * * * * * * * * * * * * * * * * * * * * * * * * * * * //

dimensions      [0 3 -1 0 0 0 0];

internalField   nonuniform List<scalar> 
760
(
-1.00871e-05
1.00868e-05
-3.29863e-05
2.28992e-05
-6.03185e-05
2.73322e-05
-8.86303e-05
2.83118e-05
-0.00011679
2.81592e-05
-0.000144364
2.75748e-05
-0.000170936
2.65719e-05
-0.00019589
2.49539e-05
-0.000218349
2.24589e-05
-0.000237142
1.87932e-05
-0.000250793
1.36512e-05
-0.000257548
6.75429e-06
-0.000255471
-2.0767e-06
-0.000242664
-1.28066e-05
-0.000217684
-2.49805e-05
-0.000180106
-3.75779e-05
-0.000131448
-4.86579e-05
-7.65403e-05
-5.49079e-05
-2.56429e-05
-5.08974e-05
-2.56429e-05
-2.42177e-05
3.43045e-05
-6.8655e-05
6.73365e-05
-0.000119897
7.85742e-05
-0.000172319
8.07338e-05
-0.000223747
7.95875e-05
-0.000273084
7.69118e-05
-0.000319348
7.28359e-05
-0.000361361
6.69671e-05
-0.00039764
5.87377e-05
-0.000426344
4.74975e-05
-0.000445251
3.25576e-05
-0.000451835
1.3338e-05
-0.000443522
-1.0389e-05
-0.000417633
-3.8696e-05
-0.00037237
-7.02438e-05
-0.000307461
-0.000102487
-0.000225477
-0.000130641
-0.000133942
-0.000146443
-4.83015e-05
-0.000136538
-7.39444e-05
-3.03231e-05
6.46276e-05
-8.42854e-05
0.000121299
-0.000145796
0.000140085
-0.000208268
0.000143206
-0.000269204
0.000140523
-0.000327339
0.000135047
-0.000381565
0.000127062
-0.000430595
0.000115997
-0.000472835
0.000100977
-0.000506302
8.09651e-05
-0.000528617
5.48726e-05
-0.000537019
2.174e-05
-0.000528196
-1.92123e-05
-0.000498982
-6.79103e-05
-0.000446812
-0.000122413
-0.00037075
-0.000178549
-0.000273208
-0.000228183
-0.000162877
-0.000256774
-5.87415e-05
-0.000240673
-0.000132686
-3.26382e-05
9.72659e-05
-9.07969e-05
0.000179457
-0.000156896
0.000206184
-0.000223938
0.000210248
-0.000289414
0.000205998
-0.00035214
0.000197774
-0.000411114
0.000186036
-0.000465162
0.000170045
-0.000512788
0.000148602
-0.000552041
0.000120218
-0.000580404
8.32361e-05
-0.000594747
3.60828e-05
-0.000591261
-2.2698e-05
-0.000565333
-9.38391e-05
-0.000512758
-0.000174988
-0.000430717
-0.00026059
-0.000320491
-0.00033841
-0.000191848
-0.000385418
-6.84265e-05
-0.000364094
-0.000201112
-3.36624e-05
0.000130928
-9.42715e-05
0.000240066
-0.000163267
0.00027518
-0.000233417
0.000280398
-0.000302305
0.000274886
-0.000368952
0.00026442
-0.000432598
0.000249683
-0.00049233
0.000229778
-0.000546894
0.000203166
-0.000594496
0.000167821
-0.000632566
0.000121306
-0.000657507
6.10237e-05
-0.000664635
-1.55703e-05
-0.000647512
-0.000110963
-0.00059915
-0.000223349
-0.000513355
-0.000346385
-0.00038848
-0.000463285
-0.000234648
-0.00053925
-8.27475e-05
-0.000515995
-0.00028386
-3.44307e-05
0.000165359
-9.72021e-05
0.000302838
-0.000168902
0.00034688
-0.000242077
0.000353574
-0.000314451
0.00034726
-0.00038533
0.000335299
-0.000454316
0.000318669
-0.000520908
0.000296369
-0.000584275
0.000266533
-0.000642992
0.000226537
-0.000694657
0.000172971
-0.000735354
0.00010172
-0.000759696
8.77236e-06
-0.000758591
-0.000112068
-0.000721199
-0.000260741
-0.00063566
-0.000431925
-0.0004942
-0.000604744
-0.000304281
-0.000729169
-0.000106941
-0.000713334
-0.000390801
-3.52405e-05
0.000200599
-0.000100329
0.000367927
-0.000174922
0.000421473
-0.000251303
0.000429954
-0.000327362
0.000423319
-0.000402769
0.000410706
-0.000477612
0.000393511
-0.00055199
0.000370747
-0.00062577
0.000340314
-0.000698263
0.00029903
-0.000767716
0.000242424
-0.000830543
0.000164547
-0.00088001
5.82385e-05
-0.00090629
-8.57881e-05
-0.000892585
-0.000274446
-0.00081853
-0.000505979
-0.000664217
-0.000759057
-0.000425558
-0.000967829
-0.000152864
-0.000986028
-0.000543665
-3.61418e-05
0.000236741
-0.000103788
0.000435573
-0.000181462
0.000499147
-0.000261103
0.000509595
-0.000340786
0.000503002
-0.000420614
0.000490534
-0.000501292
0.00047419
-0.000583739
0.000453194
-0.000668863
0.000425438
-0.000757233
0.0003874
-0.000848479
0.000333671
-0.00094027
0.000256338
-0.00102656
0.000144526
-0.00109739
-1.49557e-05
-0.00113071
-0.000241125
-0.00109564
-0.000541049
-0.000949596
-0.0009051
-0.000653979
-0.00126345
-0.000251527
-0.00138848
-0.000795193
-3.71687e-05
0.00027391
-0.000107636
0.00050604
-0.000188482
0.000579993
-0.000271194
0.000592308
-0.000354029
0.000585837
-0.000437569
0.000574074
-0.00052325
0.000559871
-0.000613016
0.000542961
-0.000709198
0.00052162
-0.000814289
0.000492491
-0.00093046
0.000449842
-0.00105854
0.000384418
-0.00119612
0.000282108
-0.00133451
0.000123429
-0.00145657
-0.000119059
-0.00151888
-0.000478743
-0.00143788
-0.0009861
-0.00108952
-0.0016118
-0.000465684
-0.00201232
-0.00126088
-3.84483e-05
0.000312358
-0.000112098
0.00057969
-0.000196132
0.000664027
-0.000281452
0.000677628
-0.000366482
0.000670867
-0.000452305
0.000659897
-0.000541124
0.000648689
-0.000636024
0.00063786
-0.000741061
0.000626657
-0.000861347
0.000612777
-0.00100293
0.000591426
-0.00117225
0.000553739
-0.00137503
0.000484881
-0.0016136
0.000362001
-0.00188344
0.000150782
-0.00213671
-0.00022547
-0.00220731
-0.000915506
-0.00180421
-0.00201489
-0.00084604
-0.00297049
-0.00210692
-4.02916e-05
0.00035265
-0.000117749
0.000657148
-0.000204985
0.000751263
-0.000292194
0.000764836
-0.000377957
0.00075663
-0.000463837
0.000745777
-0.000552745
0.000737597
-0.000648831
0.000733947
-0.000757864
0.00073569
-0.000887836
0.000742749
-0.00104978
0.000753372
-0.00125885
0.000762803
-0.00153532
0.000761357
-0.00190435
0.000731029
-0.0023766
0.000623033
-0.00287742
0.000275345
-0.0031159
-0.000677021
-0.00261606
-0.00251474
-0.00133798
-0.00424857
-0.0034449
-4.33348e-05
0.000395985
-0.000125751
0.000739564
-0.000216297
0.000841808
-0.000304448
0.000852986
-0.000388999
0.000841182
-0.000471959
0.000828736
-0.000556757
0.000822395
-0.000648246
0.000825436
-0.000753433
0.000840878
-0.000882706
0.000872021
-0.0010518
0.000922465
-0.00128497
0.000995976
-0.00161873
0.00109511
-0.002097
0.0012093
-0.00273217
0.0012582
-0.00337104
0.000914221
-0.00363002
-0.000418045
-0.00308267
-0.00306208
-0.00179641
-0.00553483
-0.00524131
-4.86202e-05
0.000444605
-0.000137948
0.000828892
-0.000232199
0.00093606
-0.000320317
0.000941105
-0.000401365
0.000922229
-0.00047777
0.000905141
-0.000553292
0.000897917
-0.000632713
0.000904857
-0.00072302
0.000931186
-0.000835127
0.000984128
-0.000986573
0.00107391
-0.00120545
0.00121485
-0.00153326
0.00142292
-0.00200683
0.00168287
-0.00260351
0.00185488
-0.00313809
0.0014488
-0.00331579
-0.000240352
-0.00293619
-0.00344168
-0.00193457
-0.00653644
-0.00717588
-5.92037e-05
0.000503809
-0.000158923
0.000928612
-0.000256515
0.00103365
-0.000342126
0.00102672
-0.00041672
0.000996823
-0.000483253
0.000971674
-0.00054464
0.000959304
-0.000604661
0.000964878
-0.000668558
0.000995083
-0.000744317
0.00105989
-0.000844758
0.00117435
-0.000988693
0.00135879
-0.00120158
0.00163581
-0.00149157
0.00197287
-0.00182779
0.00219109
-0.00209588
0.00171689
-0.0022201
-0.000116135
-0.0021762
-0.00348558
-0.00160492
-0.00710772
-0.00878081
-7.21303e-05
0.000575939
-0.000185751
0.00104223
-0.000290468
0.00113837
-0.000377163
0.00111341
-0.000444917
0.00106458
-0.000497798
0.00102455
-0.000539205
0.00100071
-0.00057162
0.000997293
-0.00059691
0.00102037
-0.000617017
0.00107999
-0.000635134
0.00119247
-0.000652633
0.00137629
-0.000671754
0.00165493
-0.000675102
0.00197622
-0.000668171
0.00218416
-0.000654498
0.00170322
-0.00074509
-2.55424e-05
-0.00102666
-0.00320401
-0.000999985
-0.0071344
-0.00978079
-0.000139306
0.000715245
-0.000267544
0.00117047
-0.000359439
0.00123026
-0.000423769
0.00117774
-0.000471658
0.00111247
-0.000506938
0.00105983
-0.000529279
0.00102305
-0.000536264
0.00100428
-0.000524312
0.00100842
-0.00048748
0.00104316
-0.000418062
0.00112305
-0.000302261
0.00126049
-0.000120912
0.00147358
0.000134708
0.0017206
0.000454701
0.00186417
0.000689588
0.00146833
0.000641242
2.28038e-05
-3.72735e-06
-0.00255904
-0.000426025
-0.0067121
-0.0102068
-9.07875e-05
0.000806033
-0.000283063
0.00136275
-0.000416957
0.00136416
-0.000500459
0.00126124
-0.000547081
0.00115909
-0.000566704
0.00107946
-0.000562903
0.00101925
-0.000534864
0.000976238
-0.000478198
0.000951756
-0.000382008
0.000946972
-0.000232065
0.000973108
-5.46484e-06
0.00103389
0.000319193
0.00114892
0.00075886
0.00128093
0.00126725
0.00135578
0.00165239
0.0010832
0.00159532
7.98647e-05
0.000851672
-0.00181539
0.000174264
-0.00603469
-0.0100326
-0.000385249
0.00119128
-0.000460177
0.00143767
-0.00053232
0.0014363
-0.000595802
0.00132472
-0.000613563
0.00117685
-0.000591762
0.00105766
-0.000535743
0.000963232
-0.0004455
0.000885995
-0.000322298
0.000828555
-0.000157799
0.000782473
5.60623e-05
0.000759246
0.000335751
0.000754198
0.000702058
0.000782614
0.00115733
0.000825657
0.00167933
0.000833775
0.00208964
0.000672893
0.00224642
-7.69164e-05
0.00181403
-0.00138299
0.000968224
-0.00518889
-0.00906433
-0.00135947
0.00255075
-0.00132582
0.00140403
-0.00107717
0.00118765
-0.000717659
0.000965217
-0.000336329
0.000795519
4.91033e-05
0.000672225
0.000426473
0.000585862
0.000793938
0.000518529
0.0011528
0.000469696
0.00150708
0.000428193
0.00186549
0.000400831
0.00223717
0.000382515
0.00264959
0.000370194
0.00310871
0.000366541
0.00363719
0.000305292
0.00412263
0.000187456
0.00431458
-0.000268865
0.0041267
-0.00119511
0.00258904
-0.00365123
-0.00647529
0.00255075
0.00395478
0.00514242
0.00610764
0.00690316
0.00757538
0.00816125
0.00867977
0.00914947
0.00957766
0.0099785
0.010361
0.0107312
0.0110977
0.011403
0.0115905
0.0113216
0.0101265
0.00647529
)
;

boundaryField
{
    movingWall
    {
        type            calculated;
        value           uniform 0;
    }
    fixedWalls
    {
        type            calculated;
        value           uniform 0;
    }
    frontAndBack
    {
        type            empty;
        value           nonuniform List<scalar> 0();
    }
}


// ************************************************************************* //
