/*--------------------------------*- C++ -*----------------------------------*\
  =========                 |
  \\      /  F ield         | OpenFOAM: The Open Source CFD Toolbox
   \\    /   O peration     | Website:  https://openfoam.org
    \\  /    A nd           | Version:  10
     \\/     M anipulation  |
\*---------------------------------------------------------------------------*/
FoamFile
{
    format      ascii;
    class       surfaceScalarField;
    location    "2.225";
    object      phi;
}
// * * * * * * * * * * * * * * * * * * * * * * * * * * * * * * * * * * * * * //

dimensions      [0 3 -1 0 0 0 0];

internalField   nonuniform List<scalar> 
760
(
-1.36963e-05
1.36963e-05
-3.45239e-05
2.08276e-05
-5.56053e-05
2.10814e-05
-7.54979e-05
1.98926e-05
-9.36449e-05
1.81471e-05
-0.000109608
1.59629e-05
-0.000122987
1.33795e-05
-0.000133422
1.04342e-05
-0.000140591
7.16964e-06
-0.000144227
3.63534e-06
-0.000144115
-1.11637e-07
-0.000140111
-4.00428e-06
-0.000132164
-7.94711e-06
-0.000120332
-1.1832e-05
-0.0001048
-1.55314e-05
-8.59019e-05
-1.88983e-05
-6.41392e-05
-2.17627e-05
-4.02875e-05
-2.38518e-05
-1.62326e-05
-2.40548e-05
-1.62326e-05
-2.1486e-05
3.51823e-05
-5.19512e-05
5.12928e-05
-8.2574e-05
5.17041e-05
-0.000111399
4.87171e-05
-0.000137599
4.43477e-05
-0.000160531
3.88947e-05
-0.000179624
3.24726e-05
-0.000194377
2.5187e-05
-0.000204359
1.7152e-05
-0.000209212
8.48871e-06
-0.000208703
-6.20945e-07
-0.000202619
-1.00882e-05
-0.000190938
-1.96284e-05
-0.000173767
-2.90028e-05
-0.000151387
-3.79117e-05
-0.000124278
-4.60074e-05
-9.31549e-05
-5.28857e-05
-5.9111e-05
-5.78956e-05
-2.4656e-05
-5.85098e-05
-4.08887e-05
-2.34524e-05
5.86347e-05
-5.65651e-05
8.44055e-05
-8.9783e-05
8.4922e-05
-0.00012102
7.99542e-05
-0.000149401
7.27291e-05
-0.000174243
6.37367e-05
-0.000194943
5.31726e-05
-0.000210973
4.12168e-05
-0.00022188
2.8059e-05
-0.000227299
1.39075e-05
-0.000226925
-9.94545e-07
-0.000220539
-1.64743e-05
-0.000208093
-3.20746e-05
-0.000189663
-4.74328e-05
-0.000165508
-6.20672e-05
-0.000136106
-7.54086e-05
-0.000102206
-8.67863e-05
-6.49809e-05
-9.51205e-05
-2.71714e-05
-9.63192e-05
-6.80601e-05
-2.49363e-05
8.3571e-05
-6.02103e-05
0.00011968
-9.55762e-05
0.000120288
-0.000128832
0.00011321
-0.000159069
0.000102966
-0.00018558
9.0248e-05
-0.000207748
7.53402e-05
-0.000225029
5.84977e-05
-0.000236951
3.99816e-05
-0.000243115
2.00716e-05
-0.000243215
-8.95203e-07
-0.000236925
-2.27639e-05
-0.000224141
-4.48589e-05
-0.00020487
-6.67032e-05
-0.000179301
-8.76361e-05
-0.000147866
-0.000106844
-0.000111312
-0.00012334
-7.0903e-05
-0.000135529
-2.96676e-05
-0.000137555
-9.77276e-05
-2.68917e-05
0.000110463
-6.49917e-05
0.00015778
-0.000103175
0.000158471
-0.00013908
0.000149115
-0.00017175
0.000135636
-0.000200456
0.000118954
-0.000224566
9.94498e-05
-0.000243525
7.74567e-05
-0.000256844
5.33007e-05
-0.000264089
2.73167e-05
-0.000264917
-6.7298e-08
-0.0002589
-2.87803e-05
-0.000245835
-5.79239e-05
-0.000225604
-8.69347e-05
-0.000198272
-0.000114967
-0.000164177
-0.00014094
-0.000124038
-0.000163479
-7.92331e-05
-0.000180335
-3.32117e-05
-0.000183576
-0.000130939
-2.9473e-05
0.000139936
-7.12767e-05
0.000199583
-0.000113138
0.000200332
-0.000152481
0.000188459
-0.000188293
0.000171448
-0.000219821
0.000150482
-0.000246428
0.000126056
-0.000267557
9.85856e-05
-0.000282711
6.8455e-05
-0.00029143
3.60353e-05
-0.000293291
1.79456e-06
-0.000287797
-3.42752e-05
-0.000274565
-7.11554e-05
-0.000253293
-0.000108207
-0.000223845
-0.000144415
-0.000186379
-0.000178406
-0.000141526
-0.000208332
-9.07761e-05
-0.000231084
-3.81676e-05
-0.000236185
-0.000169107
-3.27585e-05
0.000172694
-7.92529e-05
0.000246078
-0.000125739
0.000246819
-0.000169371
0.000232091
-0.000209069
0.000211145
-0.000244066
0.000185479
-0.000273735
0.000155726
-0.000297543
0.000122393
-0.000315004
8.59163e-05
-0.000325645
4.66763e-05
-0.000328959
5.10786e-06
-0.000324372
-3.88621e-05
-0.000311263
-8.42637e-05
-0.000289056
-0.000130415
-0.00025729
-0.00017618
-0.000215805
-0.000219891
-0.00016501
-0.000259127
-0.000106459
-0.000289635
-4.49796e-05
-0.000297664
-0.000214087
-3.6848e-05
0.000209542
-8.9153e-05
0.000298382
-0.000141311
0.000298976
-0.000190139
0.000280919
-0.000234488
0.000255494
-0.000273596
0.000224587
-0.000306882
0.000189012
-0.000333872
0.000149383
-0.000354131
0.000106176
-0.000367201
5.97464e-05
-0.000372533
1.04396e-05
-0.000369429
-4.19663e-05
-0.000356996
-9.66966e-05
-0.000334268
-0.000153143
-0.000300278
-0.00021017
-0.000254312
-0.000265858
-0.000196304
-0.000317135
-0.000127705
-0.000358233
-5.43709e-05
-0.000370998
-0.000268457
-4.18891e-05
0.000251431
-0.000101308
0.000357801
-0.00016031
0.000357979
-0.000215302
0.000335911
-0.000265072
0.000305264
-0.000308902
0.000268417
-0.000346308
0.000226418
-0.000376942
0.000180016
-0.000400484
0.000129718
-0.000416551
7.58128e-05
-0.00042459
1.84789e-05
-0.000423803
-4.27531e-05
-0.000412974
-0.000107525
-0.000390626
-0.000175491
-0.000355033
-0.000245763
-0.000304538
-0.000316353
-0.000238146
-0.000383527
-0.000156786
-0.000439594
-6.75891e-05
-0.000460195
-0.000336047
-4.81068e-05
0.000299538
-0.000116199
0.000425893
-0.000183383
0.000425163
-0.000245564
0.000398092
-0.000301499
0.000361199
-0.000350575
0.000317493
-0.000392497
0.00026834
-0.000427134
0.000214653
-0.000454384
0.000156967
-0.000474029
9.54586e-05
-0.000485599
3.0049e-05
-0.000488265
-4.00874e-05
-0.000480474
-0.000115317
-0.000460126
-0.000195839
-0.00042444
-0.000281449
-0.000370232
-0.000370562
-0.000294742
-0.000459017
-0.000197449
-0.000536887
-8.69143e-05
-0.00057073
-0.000422961
-5.58572e-05
0.000355395
-0.000134549
0.000504585
-0.000211455
0.000502069
-0.000281893
0.00046853
-0.000344654
0.00042396
-0.000399341
0.00037218
-0.000445971
0.00031497
-0.000484772
0.000253455
-0.000515998
0.000188193
-0.000539744
0.000119204
-0.000555756
4.60615e-05
-0.000563328
-3.25155e-05
-0.000560641
-0.000118003
-0.000544944
-0.000211536
-0.000512106
-0.000314287
-0.000456667
-0.000426
-0.000372646
-0.000543039
-0.000256121
-0.000653412
-0.000116801
-0.000710049
-0.000539762
-6.57276e-05
0.000421123
-0.000157463
0.000596321
-0.000245879
0.000590484
-0.000325641
0.000548292
-0.000395718
0.000494038
-0.000456096
0.000432558
-0.000507291
0.000366164
-0.000550076
0.00029624
-0.00058525
0.000223367
-0.000613416
0.00014737
-0.000634754
6.73996e-05
-0.000648944
-1.83263e-05
-0.000654139
-0.000112808
-0.000647109
-0.000218565
-0.000622252
-0.000339144
-0.000571046
-0.000477206
-0.000482192
-0.000631894
-0.000344303
-0.000791301
-0.000166625
-0.000887727
-0.000706387
-7.87458e-05
0.000499869
-0.000186678
0.000704253
-0.00028866
0.000692466
-0.000378715
0.000638348
-0.000456279
0.000571602
-0.000521974
0.000498252
-0.000577066
0.000421256
-0.000623118
0.000342292
-0.000661714
0.000261963
-0.000694204
0.00017986
-0.000721458
9.46539e-05
-0.00074408
4.29517e-06
-0.00076052
-9.63675e-05
-0.000767781
-0.000211304
-0.000759176
-0.00034775
-0.000722739
-0.000513643
-0.000639483
-0.00071515
-0.000483453
-0.00094733
-0.000258464
-0.00111272
-0.000964851
-9.68522e-05
0.000596721
-0.000225136
0.000832537
-0.000342858
0.000810188
-0.000443835
0.000739325
-0.000528495
0.000656263
-0.000598421
0.000568178
-0.000655972
0.000478807
-0.000703791
0.000390112
-0.000744515
0.000302688
-0.000780551
0.000215895
-0.000813888
0.000127991
-0.000845715
3.61229e-05
-0.000877128
-6.49548e-05
-0.000905766
-0.000182666
-0.000925631
-0.000327885
-0.000922445
-0.000516829
-0.000868588
-0.000769007
-0.00071244
-0.00110348
-0.000437414
-0.00138774
-0.00140227
-0.000121437
0.000718158
-0.000275857
0.000986957
-0.000412373
0.000946704
-0.000524665
0.000851617
-0.00061523
0.000746828
-0.000687264
0.000640211
-0.000744755
0.000536299
-0.000791757
0.000437114
-0.000832191
0.000343122
-0.000869736
0.00025344
-0.000907641
0.000165896
-0.000949045
7.75271e-05
-0.000998043
-1.59568e-05
-0.00105487
-0.000125842
-0.00111867
-0.000264081
-0.00117664
-0.000458862
-0.00119896
-0.00074668
-0.00108654
-0.0012159
-0.00077924
-0.00169505
-0.00218151
-0.000176885
0.000895043
-0.000356154
0.00116623
-0.000506947
0.0010975
-0.00062665
0.000971319
-0.000719883
0.00084006
-0.000790432
0.000710761
-0.00084383
0.000589697
-0.000885832
0.000479116
-0.000921994
0.000379283
-0.000957506
0.000288952
-0.000997747
0.000206138
-0.00104774
0.000127522
-0.00111186
4.81656e-05
-0.00119913
-3.8575e-05
-0.00131903
-0.000144183
-0.00146724
-0.00031065
-0.00162725
-0.000586675
-0.00163284
-0.0012103
-0.00130442
-0.00202347
-0.00348593
-0.000180214
0.00107526
-0.000430529
0.00141654
-0.000620814
0.00128778
-0.000756622
0.00110713
-0.000849094
0.000932532
-0.000908621
0.000770288
-0.00094725
0.000628326
-0.000974333
0.000506199
-0.000996999
0.000401949
-0.00102067
0.000312622
-0.00105067
0.000236134
-0.00109319
0.000170044
-0.00116026
0.000115236
-0.00126668
6.7848e-05
-0.00144137
3.05073e-05
-0.00168834
-6.36804e-05
-0.00202253
-0.000252484
-0.00213727
-0.00109556
-0.00168246
-0.00247828
-0.00516839
-0.000473376
0.00154863
-0.000661355
0.00160452
-0.000798385
0.00142481
-0.000893632
0.00120238
-0.000936724
0.000975623
-0.000946851
0.000780414
-0.000939335
0.00062081
-0.000924384
0.000491248
-0.000909646
0.000387211
-0.000901072
0.000304048
-0.000906057
0.000241119
-0.000929187
0.000193173
-0.000983193
0.000169243
-0.00107294
0.000157591
-0.00122611
0.000183682
-0.00142488
0.000135093
-0.0016442
-3.317e-05
-0.00172201
-0.00101775
-0.00113131
-0.00306899
-0.00629969
-0.00120651
0.00275515
-0.00111137
0.00150937
-0.000883613
0.00119706
-0.000599971
0.000918733
-0.000318974
0.000694626
-6.41402e-05
0.000525581
0.000155034
0.000401636
0.000336756
0.000309526
0.000483108
0.000240859
0.000599547
0.000187609
0.000690032
0.000150634
0.000762667
0.000120538
0.000827428
0.000104481
0.000887612
9.74065e-05
0.000990771
8.05236e-05
0.00106772
5.81407e-05
0.0012355
-0.000200948
0.00113641
-0.000918656
0.000861368
-0.00279394
-0.00543833
0.00275515
0.00426452
0.00546158
0.00638031
0.00707494
0.00760052
0.00800215
0.00831168
0.00855254
0.00874015
0.00889078
0.00901132
0.0091158
0.00921321
0.00929373
0.00935187
0.00915092
0.00823227
0.00543833
)
;

boundaryField
{
    movingWall
    {
        type            calculated;
        value           uniform 0;
    }
    fixedWalls
    {
        type            calculated;
        value           uniform 0;
    }
    frontAndBack
    {
        type            empty;
        value           nonuniform List<scalar> 0();
    }
}


// ************************************************************************* //
