/*--------------------------------*- C++ -*----------------------------------*\
  =========                 |
  \\      /  F ield         | OpenFOAM: The Open Source CFD Toolbox
   \\    /   O peration     | Website:  https://openfoam.org
    \\  /    A nd           | Version:  10
     \\/     M anipulation  |
\*---------------------------------------------------------------------------*/
FoamFile
{
    format      ascii;
    class       volVectorField;
    location    "2.225";
    object      U;
}
// * * * * * * * * * * * * * * * * * * * * * * * * * * * * * * * * * * * * * //

dimensions      [0 1 -1 0 0 0 0];

internalField   nonuniform List<vector> 
400
(
(-0.000274251 0.000271865 0)
(-0.0011454 0.000433984 0)
(-0.0022679 0.000441474 0)
(-0.00329176 0.000417464 0)
(-0.00424587 0.000382031 0)
(-0.00510213 0.000337527 0)
(-0.00583863 0.000284577 0)
(-0.00643646 0.000223792 0)
(-0.00687859 0.000155934 0)
(-0.00715025 8.19821e-05 0)
(-0.00723936 3.30815e-06 0)
(-0.00713686 -7.92501e-05 0)
(-0.00683771 -0.000163309 0)
(-0.00634202 -0.000246514 0)
(-0.00565574 -0.000326054 0)
(-0.00479151 -0.000398693 0)
(-0.00377082 -0.000460699 0)
(-0.0026304 -0.000506126 0)
(-0.00135022 -0.000509754 0)
(-0.000332047 -0.000331628 0)
(-0.00045089 0.00114769 0)
(-0.00176071 0.00170984 0)
(-0.00338477 0.00172762 0)
(-0.00487229 0.00162931 0)
(-0.00625309 0.00148503 0)
(-0.00748689 0.00130461 0)
(-0.00854199 0.00109157 0)
(-0.00939183 0.000849161 0)
(-0.0100131 0.000581061 0)
(-0.0103861 0.000291411 0)
(-0.010496 -1.52498e-05 0)
(-0.0103315 -0.000333028 0)
(-0.00988658 -0.000654173 0)
(-0.00916322 -0.000970101 0)
(-0.00817094 -0.00127053 0)
(-0.00692828 -0.00154361 0)
(-0.00546608 -0.00177563 0)
(-0.00383468 -0.00194456 0)
(-0.00201584 -0.00196259 0)
(-0.000523376 -0.00134722 0)
(-0.00049325 0.00233654 0)
(-0.00191984 0.00337795 0)
(-0.00368297 0.00340131 0)
(-0.00529566 0.00320354 0)
(-0.00679173 0.00291493 0)
(-0.00812821 0.00255515 0)
(-0.00927152 0.00213191 0)
(-0.0101937 0.00165235 0)
(-0.0108702 0.00112409 0)
(-0.0112806 0.000555479 0)
(-0.0114082 -4.42707e-05 0)
(-0.0112397 -0.00066408 0)
(-0.0107683 -0.00128975 0)
(-0.00999442 -0.00190476 0)
(-0.00892627 -0.00248953 0)
(-0.00758167 -0.00302132 0)
(-0.0059922 -0.00347358 0)
(-0.00421179 -0.0038036 0)
(-0.00221951 -0.00384753 0)
(-0.000578085 -0.00270828 0)
(-0.00052358 0.00354165 0)
(-0.00204242 0.00508132 0)
(-0.00392109 0.00510948 0)
(-0.00563773 0.00480995 0)
(-0.00723083 0.00437521 0)
(-0.00865558 0.00383462 0)
(-0.0098774 0.00320003 0)
(-0.0108676 0.00248226 0)
(-0.0116008 0.00169256 0)
(-0.0120555 0.000843047 0)
(-0.0122139 -5.24983e-05 0)
(-0.0120602 -0.000979505 0)
(-0.0115832 -0.00191782 0)
(-0.0107804 -0.00284345 0)
(-0.00965642 -0.00372734 0)
(-0.00822579 -0.00453511 0)
(-0.0065188 -0.00522586 0)
(-0.00459254 -0.00573368 0)
(-0.00242367 -0.0058125 0)
(-0.000631248 -0.00412144 0)
(-0.000563857 0.00483136 0)
(-0.00220352 0.00690691 0)
(-0.00423334 0.00693962 0)
(-0.00608644 0.00653121 0)
(-0.00780678 0.00594109 0)
(-0.00934736 0.00520927 0)
(-0.0106726 0.00435214 0)
(-0.0117533 0.0033843 0)
(-0.0125635 0.00232038 0)
(-0.0130802 0.00117561 0)
(-0.0132844 -3.33922e-05 0)
(-0.0131565 -0.00128738 0)
(-0.0126802 -0.00256234 0)
(-0.0118474 -0.00382757 0)
(-0.0106562 -0.00504433 0)
(-0.00911558 -0.00616524 0)
(-0.00725218 -0.00713202 0)
(-0.00512646 -0.00785004 0)
(-0.00271255 -0.0079786 0)
(-0.000707462 -0.00568249 0)
(-0.000617304 0.00623486 0)
(-0.00241583 0.00889621 0)
(-0.00464333 0.00893282 0)
(-0.00667408 0.00840551 0)
(-0.0085591 0.0076473 0)
(-0.0102488 0.0067103 0)
(-0.0117069 0.00561606 0)
(-0.0129041 0.00438314 0)
(-0.0138144 0.00302925 0)
(-0.0144141 0.00157183 0)
(-0.0146816 2.91675e-05 0)
(-0.0145935 -0.00157658 0)
(-0.0141274 -0.00321943 0)
(-0.0132661 -0.00486311 0)
(-0.0119976 -0.00645959 0)
(-0.010321 -0.00794697 0)
(-0.00825551 -0.00924554 0)
(-0.00586358 -0.0102236 0)
(-0.00311534 -0.0104267 0)
(-0.00081493 -0.00745411 0)
(-0.000685496 0.00778411 0)
(-0.00268584 0.0110942 0)
(-0.00516308 0.0111327 0)
(-0.00741626 0.0104725 0)
(-0.00950573 0.0095291 0)
(-0.0113792 0.00836873 0)
(-0.0130002 0.0070192 0)
(-0.0143405 0.00550337 0)
(-0.0153752 0.00384161 0)
(-0.0160807 0.0020525 0)
(-0.0164332 0.00015435 0)
(-0.0164054 -0.00183152 0)
(-0.015967 -0.00387904 0)
(-0.0150879 -0.00594924 0)
(-0.0137409 -0.00798653 0)
(-0.0119083 -0.00991353 0)
(-0.00959467 -0.011624 0)
(-0.00686007 -0.0129371 0)
(-0.003667 -0.0132557 0)
(-0.000964103 -0.00951519 0)
(-0.000770531 0.00951651 0)
(-0.00302175 0.0135532 0)
(-0.00580735 0.013589 0)
(-0.00833154 0.0127763 0)
(-0.0106671 0.0116245 0)
(-0.0127591 0.0102172 0)
(-0.0145724 0.00858997 0)
(-0.0160818 0.00677064 0)
(-0.0172654 0.00478182 0)
(-0.0181014 0.00264167 0)
(-0.0185656 0.000365885 0)
(-0.018627 -0.00202895 0)
(-0.0182452 -0.00452114 0)
(-0.0173737 -0.00707408 0)
(-0.0159628 -0.00962879 0)
(-0.0139672 -0.0120936 0)
(-0.0113641 -0.0143302 0)
(-0.0082003 -0.016092 0)
(-0.00442325 -0.0165948 0)
(-0.0011728 -0.0119735 0)
(-0.000875653 0.0114754 0)
(-0.00343552 0.0163332 0)
(-0.00659687 0.0163571 0)
(-0.00944512 0.0153638 0)
(-0.0120697 0.0139723 0)
(-0.0144141 0.0122875 0)
(-0.0164469 0.0103554 0)
(-0.0181488 0.00820964 0)
(-0.0195043 0.00587469 0)
(-0.0204967 0.00336638 0)
(-0.0211038 0.00069419 0)
(-0.0212925 -0.00213456 0)
(-0.0210122 -0.00511024 0)
(-0.0201956 -0.00820676 0)
(-0.0187615 -0.0113704 0)
(-0.0166212 -0.0145012 0)
(-0.0137024 -0.017426 0)
(-0.0100153 -0.0198112 0)
(-0.00547732 -0.0206145 0)
(-0.00147351 -0.014983 0)
(-0.00100609 0.013713 0)
(-0.00394507 0.0195051 0)
(-0.00756139 0.0194994 0)
(-0.0107919 0.0182853 0)
(-0.013749 0.0166109 0)
(-0.0163765 0.0146089 0)
(-0.0186506 0.0123388 0)
(-0.0205628 0.00984169 0)
(-0.0221089 0.00714362 0)
(-0.0232821 0.00425586 0)
(-0.0240666 0.00117749 0)
(-0.0244315 -0.00210013 0)
(-0.0243175 -0.00558926 0)
(-0.023634 -0.00928747 0)
(-0.0222586 -0.0131621 0)
(-0.0200379 -0.0171203 0)
(-0.0168149 -0.0209607 0)
(-0.0125129 -0.0242407 0)
(-0.0069929 -0.0255457 0)
(-0.00192953 -0.018779 0)
(-0.00117067 0.0162954 0)
(-0.00457816 0.0231548 0)
(-0.00874456 0.0230879 0)
(-0.0124212 0.0215939 0)
(-0.0157526 0.0195768 0)
(-0.018687 0.017205 0)
(-0.0212145 0.0145561 0)
(-0.0233444 0.0116809 0)
(-0.0250905 0.00860687 0)
(-0.0264632 0.00533852 0)
(-0.02746 0.00185979 0)
(-0.0280595 -0.0018618 0)
(-0.0281997 -0.00587301 0)
(-0.0277687 -0.0102141 0)
(-0.0265961 -0.0148999 0)
(-0.0244398 -0.0198766 0)
(-0.0210066 -0.0249425 0)
(-0.0160309 -0.0295436 0)
(-0.00927375 -0.031703 0)
(-0.00267294 -0.0237485 0)
(-0.00138516 0.0193113 0)
(-0.00537922 0.0273899 0)
(-0.0102115 0.0272058 0)
(-0.0144033 0.0253441 0)
(-0.0181452 0.0229004 0)
(-0.0213981 0.0200885 0)
(-0.0241752 0.0170099 0)
(-0.0265125 0.013728 0)
(-0.0284518 0.0102717 0)
(-0.0300297 0.00663664 0)
(-0.0312674 0.00278729 0)
(-0.0321647 -0.00134 0)
(-0.0326702 -0.00584242 0)
(-0.0326613 -0.0108258 0)
(-0.0319236 -0.0163937 0)
(-0.030108 -0.0225894 0)
(-0.0267271 -0.0292809 0)
(-0.0211316 -0.0358635 0)
(-0.0129165 -0.0395106 0)
(-0.00399724 -0.0305769 0)
(-0.00167999 0.0228921 0)
(-0.00642249 0.0323541 0)
(-0.012061 0.0319524 0)
(-0.0168399 0.02959 0)
(-0.0210162 0.0266011 0)
(-0.0245786 0.0232544 0)
(-0.0275758 0.0196821 0)
(-0.0300833 0.0159622 0)
(-0.0321826 0.0121255 0)
(-0.0339483 0.0081573 0)
(-0.0354374 0.00399838 0)
(-0.0366899 -0.000454726 0)
(-0.0376864 -0.00534361 0)
(-0.0383209 -0.0108851 0)
(-0.0383636 -0.017321 0)
(-0.0373667 -0.0248868 0)
(-0.034618 -0.0336699 0)
(-0.0287648 -0.0432107 0)
(-0.0191447 -0.0494519 0)
(-0.00658447 -0.0406254 0)
(-0.00211673 0.0271423 0)
(-0.00784328 0.038185 0)
(-0.01445 0.0374237 0)
(-0.0198808 0.0343741 0)
(-0.0244894 0.030677 0)
(-0.0283186 0.0266696 0)
(-0.0314684 0.0225225 0)
(-0.0340698 0.0183296 0)
(-0.0362572 0.0141235 0)
(-0.0381573 0.00987919 0)
(-0.03988 0.00551528 0)
(-0.0415072 0.000892921 0)
(-0.0431013 -0.00418871 0)
(-0.0446398 -0.0100715 0)
(-0.045931 -0.0171828 0)
(-0.0465163 -0.0260916 0)
(-0.0455281 -0.0373714 0)
(-0.0404722 -0.0511712 0)
(-0.0305037 -0.0617854 0)
(-0.0121239 -0.0566859 0)
(-0.00274386 0.032972 0)
(-0.00974625 0.0453114 0)
(-0.0175663 0.0437959 0)
(-0.023725 0.0397161 0)
(-0.0287298 0.035086 0)
(-0.0327348 0.03026 0)
(-0.0359159 0.0254392 0)
(-0.038481 0.0207329 0)
(-0.0406301 0.0161754 0)
(-0.0425518 0.011731 0)
(-0.0444169 0.00729728 0)
(-0.0463844 0.00269207 0)
(-0.0486382 -0.00235677 0)
(-0.0512984 -0.0082066 0)
(-0.0543672 -0.0155044 0)
(-0.0576105 -0.0252963 0)
(-0.0603055 -0.0388839 0)
(-0.0583244 -0.0582407 0)
(-0.0513501 -0.0757402 0)
(-0.0237646 -0.0838348 0)
(-0.00448975 0.03798 0)
(-0.0135105 0.0536706 0)
(-0.0219999 0.0512101 0)
(-0.0287404 0.0458944 0)
(-0.0339511 0.0399706 0)
(-0.0379581 0.0339978 0)
(-0.0409746 0.0283078 0)
(-0.0432964 0.0230175 0)
(-0.045203 0.0181361 0)
(-0.0469586 0.0136053 0)
(-0.0488195 0.00933047 0)
(-0.0510358 0.00516745 0)
(-0.0538415 0.000893447 0)
(-0.0575815 -0.0039274 0)
(-0.0627373 -0.0101176 0)
(-0.0695434 -0.0193776 0)
(-0.0783516 -0.0339374 0)
(-0.0825141 -0.0611109 0)
(-0.0840117 -0.0908361 0)
(-0.0405585 -0.133101 0)
(-0.00397008 0.0536851 0)
(-0.0148254 0.0613564 0)
(-0.0274015 0.0573846 0)
(-0.0350656 0.049867 0)
(-0.0405344 0.0428959 0)
(-0.0441809 0.0362592 0)
(-0.0465081 0.0301316 0)
(-0.0480717 0.0245602 0)
(-0.0492602 0.019553 0)
(-0.0503726 0.0150669 0)
(-0.0516635 0.0110269 0)
(-0.0534087 0.00728072 0)
(-0.0560546 0.00365774 0)
(-0.060238 -0.000318488 0)
(-0.0670561 -0.00514468 0)
(-0.0771528 -0.0130845 0)
(-0.0945068 -0.0265992 0)
(-0.104301 -0.0613489 0)
(-0.116385 -0.11298 0)
(-0.0416656 -0.216351 0)
(-0.0127955 0.0497921 0)
(-0.0324049 0.0840823 0)
(-0.0356464 0.0745394 0)
(-0.0436231 0.064074 0)
(-0.0462112 0.0530685 0)
(-0.0473109 0.0428581 0)
(-0.0471963 0.0341879 0)
(-0.0465381 0.0270512 0)
(-0.0457374 0.0212721 0)
(-0.0451114 0.0166006 0)
(-0.0449838 0.0129173 0)
(-0.0456024 0.0100796 0)
(-0.0474724 0.00826756 0)
(-0.0507712 0.00752876 0)
(-0.0571649 0.00853335 0)
(-0.0645186 0.00750379 0)
(-0.0817036 0.00321412 0)
(-0.0792301 -0.0454284 0)
(-0.102357 -0.131189 0)
(0.000998191 -0.306844 0)
(-0.070429 0.115238 0)
(-0.054695 0.0698191 0)
(-0.0531222 0.0622922 0)
(-0.0369635 0.0506344 0)
(-0.0224858 0.0397844 0)
(-0.00906078 0.031396 0)
(0.00282224 0.0249838 0)
(0.0128279 0.0198822 0)
(0.0209627 0.0158013 0)
(0.0275134 0.0125417 0)
(0.0325243 0.0101933 0)
(0.036782 0.0083486 0)
(0.0396006 0.00779194 0)
(0.0438792 0.00715677 0)
(0.0442934 0.00834599 0)
(0.0569724 0.0042107 0)
(0.0444942 -0.00802539 0)
(0.0835463 -0.0657373 0)
(0.0192724 -0.198009 0)
(0.0810408 -0.356308 0)
(0.127166 0.143132 0)
(0.165403 0.0874774 0)
(0.246326 0.0625863 0)
(0.300054 0.0459301 0)
(0.338941 0.0335178 0)
(0.36855 0.0241542 0)
(0.391405 0.0174154 0)
(0.409042 0.0127182 0)
(0.422319 0.00950346 0)
(0.433281 0.0071478 0)
(0.440468 0.00558731 0)
(0.449474 0.00434907 0)
(0.450302 0.00322318 0)
(0.463599 0.00334885 0)
(0.452831 0.000592051 0)
(0.478419 0.0027851 0)
(0.441523 -0.00831685 0)
(0.464515 -0.0153301 0)
(0.335336 -0.0528721 0)
(0.252364 -0.138539 0)
)
;

boundaryField
{
    movingWall
    {
        type            fixedValue;
        value           uniform (1 0 0);
    }
    fixedWalls
    {
        type            noSlip;
    }
    frontAndBack
    {
        type            empty;
    }
}


// ************************************************************************* //
