/*--------------------------------*- C++ -*----------------------------------*\
  =========                 |
  \\      /  F ield         | OpenFOAM: The Open Source CFD Toolbox
   \\    /   O peration     | Website:  https://openfoam.org
    \\  /    A nd           | Version:  10
     \\/     M anipulation  |
\*---------------------------------------------------------------------------*/
FoamFile
{
    format      ascii;
    class       volScalarField;
    location    "6.6";
    object      p;
}
// * * * * * * * * * * * * * * * * * * * * * * * * * * * * * * * * * * * * * //

dimensions      [0 2 -2 0 0 0 0];

internalField   nonuniform List<scalar> 
400
(
-1.15622e-08
-2.09216e-05
2.71729e-05
0.000120293
0.000264953
0.000462914
0.000716624
0.00102883
0.00140155
0.00183515
0.00232722
0.00287109
0.00345421
0.00405663
0.00464977
0.00519707
0.00565619
0.00598495
0.00617406
0.00615058
2.16914e-05
3.39815e-07
5.3361e-05
0.000146981
0.000289294
0.000482857
0.000730629
0.00103572
0.00140047
0.00182572
0.00230968
0.00284639
0.0034237
0.00402356
0.00461761
0.00516913
0.00563435
0.0059697
0.00616799
0.00613836
-3.36707e-05
-6.2101e-05
-1.07524e-05
7.92174e-05
0.00021673
0.000404641
0.000646499
0.000946307
0.00130763
0.00173279
0.00222172
0.00277044
0.00336986
0.00400161
0.00463662
0.00523454
0.00574448
0.00611263
0.00632943
0.00627887
-0.000146951
-0.000180496
-0.000132172
-4.77793e-05
8.25222e-05
0.000262055
0.000495273
0.000787523
0.00114423
0.00157014
0.00206815
0.00263748
0.00327145
0.00395538
0.0046593
0.00533773
0.00592757
0.00635558
0.00660753
0.00652835
-0.000324302
-0.000362543
-0.000318971
-0.00024243
-0.000122123
4.58626e-05
0.000267113
0.00054868
0.000898398
0.00132435
0.00183376
0.00243088
0.00311375
0.00387135
0.0046755
0.00547475
0.00618955
0.0067157
0.00702689
0.00689927
-0.000564834
-0.000608147
-0.000571147
-0.000505163
-0.000398512
-0.000246681
-4.28784e-05
0.000221838
0.000558094
0.000978012
0.00149446
0.00211892
0.0028582
0.00370666
0.00464481
0.00561578
0.00651878
0.0072024
0.00761327
0.00739831
-0.000866082
-0.00091534
-0.000886914
-0.000834813
-0.000746621
-0.000617401
-0.000439325
-0.000201664
0.00010907
0.000509429
0.00101892
0.00165888
0.00244811
0.00339618
0.0044966
0.00569759
0.00687723
0.00781566
0.00840212
0.00803256
-0.00122497
-0.00128134
-0.00126366
-0.0012293
-0.00116539
-0.00106702
-0.000925859
-0.000729972
-0.000463577
-0.000106061
0.00036885
0.000993517
0.00180372
0.00282983
0.00410301
0.00558798
0.00716125
0.00852245
0.00943032
0.0088185
-0.00163756
-0.00170232
-0.00169744
-0.00168479
-0.00165151
-0.00159342
-0.00150269
-0.00136753
-0.00117138
-0.000891298
-0.00049588
5.75373e-05
0.00082533
0.00187474
0.00324764
0.0050097
0.00708994
0.00916271
0.0106437
0.00980668
-0.00209898
-0.00217337
-0.00218264
-0.00219502
-0.00219829
-0.00219
-0.00216426
-0.00211133
-0.00201693
-0.00186016
-0.00161025
-0.00122203
-0.000630401
0.000253162
0.0015341
0.00333489
0.00587035
0.00906209
0.0115599
0.0109428
-0.00260373
-0.00268878
-0.00271191
-0.00275078
-0.00279462
-0.00284396
-0.00289658
-0.00294737
-0.00298818
-0.00300644
-0.0029831
-0.00288946
-0.00268093
-0.00229496
-0.00164998
-0.000556869
0.00165481
0.00589307
0.0100434
0.0115434
-0.00314675
-0.00324273
-0.00327614
-0.00333939
-0.00342396
-0.00353455
-0.00367433
-0.00384541
-0.00405031
-0.0042926
-0.00457896
-0.0049237
-0.00536127
-0.0059963
-0.00705794
-0.00855422
-0.0089802
-0.00485448
0.00170407
0.00775404
-0.0037257
-0.00383238
-0.00386862
-0.00394931
-0.00406803
-0.00423565
-0.00446234
-0.00475918
-0.00514308
-0.00564137
-0.00630151
-0.00721254
-0.00855198
-0.010694
-0.0145102
-0.0203296
-0.0259219
-0.0229855
-0.0143015
-0.00266928
-0.00433787
-0.00444617
-0.00446412
-0.00454547
-0.00468601
-0.00490086
-0.00520418
-0.00561633
-0.00616856
-0.00691267
-0.00794047
-0.00942235
-0.011708
-0.0154076
-0.0219773
-0.0316903
-0.0426163
-0.0421036
-0.0331287
-0.0171963
-0.00501482
-0.00513525
-0.00511783
-0.00518586
-0.00531879
-0.00554573
-0.00588835
-0.00637454
-0.00704531
-0.00796718
-0.00925836
-0.0111188
-0.0140169
-0.0185718
-0.0265334
-0.0375701
-0.0511158
-0.0512468
-0.0435147
-0.0259815
-0.00583716
-0.005763
-0.00563091
-0.00560183
-0.00570479
-0.00594679
-0.00633441
-0.0068843
-0.00763328
-0.00864552
-0.0100438
-0.0119991
-0.0150188
-0.0194868
-0.0271131
-0.0368683
-0.0473243
-0.0477471
-0.0421586
-0.0217195
-0.00632738
-0.00675825
-0.00647139
-0.00648732
-0.00648747
-0.00662145
-0.0069051
-0.00737128
-0.00805771
-0.00901257
-0.0103495
-0.0121748
-0.0148882
-0.0187571
-0.0248856
-0.0318773
-0.0389443
-0.0376598
-0.0308634
-0.00261496
-0.00970274
-0.00719027
-0.00657015
-0.00600499
-0.00594975
-0.00615082
-0.00655063
-0.00711474
-0.00786131
-0.00880484
-0.0100728
-0.0117066
-0.0140625
-0.0171696
-0.0216763
-0.0259294
-0.029514
-0.0249064
-0.0122623
0.0326381
-0.00641563
-0.00941916
-0.00837437
-0.00840987
-0.00798077
-0.0077684
-0.00773795
-0.00792997
-0.00838312
-0.00907724
-0.0101255
-0.0115381
-0.0137174
-0.0164824
-0.0208552
-0.0242511
-0.0261242
-0.0131825
0.0143249
0.092408
-0.0316023
-0.00658107
-0.00510001
-0.00437393
-0.0041963
-0.00444198
-0.0049866
-0.00564681
-0.00651448
-0.00748372
-0.00884301
-0.010435
-0.0126592
-0.0150156
-0.0173548
-0.0161647
-0.00800789
0.0250683
0.0939568
0.227013
)
;

boundaryField
{
    movingWall
    {
        type            zeroGradient;
    }
    fixedWalls
    {
        type            zeroGradient;
    }
    frontAndBack
    {
        type            empty;
    }
}


// ************************************************************************* //
