/*--------------------------------*- C++ -*----------------------------------*\
  =========                 |
  \\      /  F ield         | OpenFOAM: The Open Source CFD Toolbox
   \\    /   O peration     | Website:  https://openfoam.org
    \\  /    A nd           | Version:  10
     \\/     M anipulation  |
\*---------------------------------------------------------------------------*/
FoamFile
{
    format      ascii;
    class       surfaceScalarField;
    location    "6.6";
    object      phi;
}
// * * * * * * * * * * * * * * * * * * * * * * * * * * * * * * * * * * * * * //

dimensions      [0 3 -1 0 0 0 0];

internalField   nonuniform List<scalar> 
760
(
-1.00179e-05
1.00179e-05
-3.27863e-05
2.27685e-05
-5.99519e-05
2.71655e-05
-8.80726e-05
2.81207e-05
-0.00011602
2.79478e-05
-0.000143363
2.73421e-05
-0.00016968
2.6317e-05
-0.000194359
2.46793e-05
-0.000216531
2.21725e-05
-0.000235041
1.85097e-05
-0.000248434
1.33934e-05
-0.000254988
6.5539e-06
-0.000252808
-2.18071e-06
-0.000240037
-1.27702e-05
-0.000215271
-2.47663e-05
-0.000178101
-3.71705e-05
-0.000130015
-4.80861e-05
-7.575e-05
-5.42645e-05
-2.54129e-05
-5.03371e-05
-2.54129e-05
-2.40696e-05
3.40875e-05
-6.82471e-05
6.6946e-05
-0.000119161
7.80798e-05
-0.000171211
8.01702e-05
-0.000222233
7.89701e-05
-0.000271134
7.62431e-05
-0.000316935
7.21183e-05
-0.000358468
6.62117e-05
-0.000394264
5.79685e-05
-0.00042251
4.67557e-05
-0.000441019
3.19029e-05
-0.00044732
1.28548e-05
-0.00043889
-1.06105e-05
-0.000413117
-3.85437e-05
-0.000368254
-6.96294e-05
-0.000304048
-0.000101376
-0.000223025
-0.00012911
-0.000132561
-0.000144728
-4.78645e-05
-0.000135034
-7.32775e-05
-3.01266e-05
6.42141e-05
-8.37495e-05
0.000120569
-0.000144839
0.00013917
-0.00020684
0.000142171
-0.000267271
0.0001394
-0.000324871
0.000133844
-0.000378539
0.000125785
-0.000426994
0.000114667
-0.00046866
9.96346e-05
-0.000501584
7.968e-05
-0.000523428
5.37462e-05
-0.000531481
2.09083e-05
-0.000522503
-1.95891e-05
-0.000493407
-6.76388e-05
-0.000441703
-0.000121333
-0.000366491
-0.000176589
-0.00027014
-0.00022546
-0.000161165
-0.000253703
-5.8229e-05
-0.00023797
-0.000131506
-3.24229e-05
9.6637e-05
-9.02097e-05
0.000178356
-0.000155849
0.000204809
-0.000222381
0.000208703
-0.000287309
0.000204329
-0.000349456
0.00019599
-0.000407818
0.000184148
-0.000461229
0.000168078
-0.000508204
0.00014661
-0.000546819
0.000118295
-0.000574596
8.15231e-05
-0.000588463
3.4776e-05
-0.000584688
-2.33645e-05
-0.000558768
-9.35582e-05
-0.000506615
-0.000173486
-0.0004255
-0.000257704
-0.000316695
-0.000334264
-0.000189757
-0.000380642
-6.78699e-05
-0.000359857
-0.000199376
-3.34534e-05
0.00013009
-9.36953e-05
0.000238598
-0.000162233
0.000273347
-0.00023187
0.00027834
-0.000300202
0.00027266
-0.000366248
0.000262036
-0.000429246
0.000247145
-0.000488279
0.000227111
-0.000542099
0.00020043
-0.000588927
0.000165123
-0.000626228
0.000118824
-0.000650468
5.90158e-05
-0.000657054
-1.67789e-05
-0.00063969
-0.000110922
-0.000591579
-0.000221598
-0.000506711
-0.000342572
-0.000383526
-0.00045745
-0.00023193
-0.000532238
-8.21391e-05
-0.000509648
-0.000281515
-3.42438e-05
0.000164334
-9.66774e-05
0.000301031
-0.000167946
0.000344616
-0.000240629
0.000351023
-0.000312457
0.000344488
-0.00038273
0.00033231
-0.000451037
0.000315453
-0.000516865
0.000292939
-0.000579376
0.00026294
-0.000637144
0.000222892
-0.000687787
0.000169466
-0.000727433
9.86618e-05
-0.000750853
6.64122e-06
-0.000749041
-0.000112733
-0.000711506
-0.000259132
-0.000626721
-0.000427358
-0.000487205
-0.000596966
-0.000300353
-0.00071909
-0.000106197
-0.000703803
-0.000387713
-3.50867e-05
0.000199421
-9.98844e-05
0.000365829
-0.000174091
0.000418822
-0.000250017
0.000426949
-0.000325558
0.00042003
-0.000400369
0.000407121
-0.000474517
0.0003896
-0.000548073
0.000366495
-0.000620877
0.000335745
-0.000692217
0.000294232
-0.000760333
0.000237582
-0.000821669
0.000159997
-0.000869562
5.45348e-05
-0.000894389
-8.79068e-05
-0.00087972
-0.000273801
-0.000805761
-0.000501316
-0.000653355
-0.000749372
-0.000418965
-0.00095348
-0.000151592
-0.000971176
-0.000539304
-3.60311e-05
0.000235452
-0.000103448
0.000433246
-0.000180797
0.000496171
-0.000260041
0.000506193
-0.000339256
0.000499244
-0.000418523
0.000486388
-0.000498514
0.000469592
-0.000580104
0.000448086
-0.00066415
0.000419791
-0.000751161
0.000381243
-0.000840714
0.000327134
-0.000930439
0.000249723
-0.00101431
0.000138406
-0.00108237
-1.98439e-05
-0.0011131
-0.000243075
-0.0010763
-0.000538114
-0.000931124
-0.000894551
-0.000641399
-0.0012432
-0.000248493
-0.00136408
-0.000787797
-3.71108e-05
0.000272563
-0.000107427
0.000503562
-0.000188029
0.000576773
-0.000270424
0.000588588
-0.000352867
0.000581687
-0.000435916
0.000569437
-0.000520961
0.000554637
-0.000609887
0.000537011
-0.00070494
0.000514844
-0.000808507
0.000484809
-0.00092262
0.000441248
-0.00104795
0.00037505
-0.0011819
0.000272354
-0.00131582
0.000114081
-0.00143213
-0.000126765
-0.00148876
-0.000481486
-0.00140598
-0.000977332
-0.00106626
-0.00158292
-0.000459037
-0.00197131
-0.00124683
-3.84523e-05
0.000311015
-0.000112044
0.000577154
-0.000195933
0.000660662
-0.000281041
0.000673696
-0.000365791
0.000666437
-0.000451238
0.000654883
-0.000539533
0.000642933
-0.000633689
0.000631167
-0.000737653
0.000618807
-0.000856375
0.000603532
-0.000995669
0.000580542
-0.00116163
0.000541015
-0.00135947
0.00047019
-0.00159075
0.000345364
-0.00185076
0.000133244
-0.00209279
-0.000239459
-0.00216006
-0.000910058
-0.00177201
-0.00197097
-0.000836317
-0.002907
-0.00208315
-4.03648e-05
0.00035138
-0.000117869
0.000654659
-0.000205078
0.000747871
-0.000292205
0.000760822
-0.000377837
0.000752069
-0.000463509
0.000740555
-0.000552084
0.000731508
-0.000647634
0.000726717
-0.000755805
0.000726978
-0.000884392
0.000732119
-0.00104411
0.000740258
-0.00124954
0.000746443
-0.00152002
0.000740673
-0.00187941
0.000704753
-0.00233837
0.000592208
-0.00282893
0.000251095
-0.00307142
-0.000667564
-0.00259186
-0.00245053
-0.00132605
-0.00417281
-0.0034092
-4.34796e-05
0.000394859
-0.000126055
0.000737234
-0.000216705
0.000838521
-0.000304928
0.000849046
-0.000389534
0.000836674
-0.00047251
0.000823531
-0.000557247
0.000816245
-0.000648534
0.000818005
-0.000753273
0.000831717
-0.000881663
0.000860509
-0.00104911
0.000907701
-0.00127925
0.000976588
-0.0016077
0.00106912
-0.00207814
0.0011752
-0.00270573
0.00121979
-0.00334634
0.00089171
-0.00361997
-0.000393939
-0.0030806
-0.0029899
-0.00178359
-0.00546983
-0.00519278
-4.88374e-05
0.000443697
-0.000138436
0.000826832
-0.000232927
0.000933012
-0.000321284
0.000937404
-0.000402595
0.000917985
-0.000479285
0.000900221
-0.000555094
0.000892054
-0.000634775
0.000897687
-0.000725267
0.000922208
-0.000837389
0.000972631
-0.000988533
0.00105885
-0.00120664
0.00119469
-0.00153331
0.00139579
-0.00200704
0.00164893
-0.00260953
0.00182229
-0.00315843
0.00144061
-0.00334644
-0.00020593
-0.00295517
-0.00338117
-0.00193479
-0.00649021
-0.00712758
-5.94717e-05
0.000503169
-0.000159555
0.000926916
-0.000257523
0.00103098
-0.000343558
0.00102344
-0.000418647
0.000993074
-0.000485756
0.00096733
-0.000547818
0.000954116
-0.000608636
0.000958504
-0.000673498
0.000987071
-0.000750488
0.00104962
-0.000852628
0.00116098
-0.000999263
0.00134133
-0.00121697
0.0016135
-0.00151611
0.00194807
-0.00186711
0.00217328
-0.00215157
0.00172508
-0.00228035
-7.71571e-05
-0.0022187
-0.00344282
-0.00162674
-0.00708217
-0.00875432
-7.24496e-05
0.000575618
-0.000186523
0.00104099
-0.000291725
0.00113618
-0.000378989
0.0011107
-0.00044744
0.00106152
-0.000501171
0.00102106
-0.000543618
0.000996563
-0.000577329
0.000992215
-0.000604279
0.00101402
-0.000626618
0.00107196
-0.000647923
0.00118229
-0.000670366
0.00136377
-0.000697566
0.0016407
-0.000713269
0.00196377
-0.000722253
0.00218226
-0.00071787
0.0017207
-0.000808863
1.38358e-05
-0.00107259
-0.00317909
-0.00102277
-0.00713199
-0.00977709
-0.0001396
0.000715218
-0.000268279
0.00116967
-0.000360757
0.00122866
-0.000425828
0.00117577
-0.000474636
0.00111033
-0.00051102
0.00105744
-0.000534705
0.00102025
-0.000543351
0.00100086
-0.000533509
0.00100418
-0.00049944
0.00103789
-0.000433755
0.00111661
-0.000323045
0.00125306
-0.000149459
0.00146711
9.73005e-05
0.00171701
0.000409638
0.00186993
0.000641159
0.00148917
0.00060074
5.42549e-05
-2.71943e-05
-0.00255116
-0.000438481
-0.0067207
-0.0102156
-9.10135e-05
0.000806232
-0.000283697
0.00136235
-0.000418248
0.00136321
-0.00050266
0.00126019
-0.000550351
0.00115802
-0.000571191
0.00107829
-0.000568816
0.00101787
-0.000542499
0.000974544
-0.00048795
0.000949631
-0.000394409
0.00094435
-0.000247809
0.000970004
-2.51786e-05
0.00103043
0.000295952
0.00114598
0.000732044
0.00128092
0.00123987
0.00136211
0.00163036
0.00109868
0.00158497
9.96481e-05
0.000846336
-0.00181252
0.00017213
-0.00604649
-0.0100434
-0.000385426
0.00119166
-0.000460905
0.00143783
-0.000533738
0.00143605
-0.000597977
0.00132442
-0.000616551
0.0011766
-0.000595635
0.00105737
-0.000540664
0.000962901
-0.000451694
0.000885575
-0.000330026
0.000827962
-0.000167355
0.00078168
4.44722e-05
0.000758177
0.000321816
0.000753087
0.000686155
0.000781644
0.00114122
0.000825858
0.00166627
0.000837058
0.00208464
0.000680306
0.00225311
-6.88251e-05
0.00182365
-0.00138306
0.000973351
-0.0051962
-0.00907009
-0.00135926
0.00255091
-0.00132561
0.00140418
-0.00107721
0.00118765
-0.000718021
0.000965234
-0.000336974
0.00079555
4.81644e-05
0.000672231
0.000425171
0.000585894
0.000792146
0.0005186
0.00115041
0.000469701
0.00150387
0.000428213
0.00186123
0.000400825
0.00223183
0.000382485
0.00264308
0.000370387
0.0031018
0.000367141
0.00363238
0.000306484
0.00412294
0.000189744
0.00432054
-0.000266423
0.00413387
-0.00119639
0.00259237
-0.00365471
-0.00647772
0.00255091
0.0039551
0.00514274
0.00610798
0.00690353
0.00757576
0.00816165
0.00868025
0.00914995
0.00957817
0.00997899
0.0103615
0.0107319
0.011099
0.0114055
0.0115952
0.0113288
0.0101324
0.00647772
)
;

boundaryField
{
    movingWall
    {
        type            calculated;
        value           uniform 0;
    }
    fixedWalls
    {
        type            calculated;
        value           uniform 0;
    }
    frontAndBack
    {
        type            empty;
        value           nonuniform List<scalar> 0();
    }
}


// ************************************************************************* //
