/*--------------------------------*- C++ -*----------------------------------*\
  =========                 |
  \\      /  F ield         | OpenFOAM: The Open Source CFD Toolbox
   \\    /   O peration     | Website:  https://openfoam.org
    \\  /    A nd           | Version:  10
     \\/     M anipulation  |
\*---------------------------------------------------------------------------*/
FoamFile
{
    format      ascii;
    class       volScalarField;
    location    "8.125";
    object      p;
}
// * * * * * * * * * * * * * * * * * * * * * * * * * * * * * * * * * * * * * //

dimensions      [0 2 -2 0 0 0 0];

internalField   nonuniform List<scalar> 
8000
(
-2.69588e-06
-8.26789e-06
4.43592e-05
0.000140476
0.00028662
0.000485125
0.000738718
0.00105012
0.00142121
0.00185209
0.00233983
0.002877
0.00344995
0.00403737
0.00460968
0.00513046
0.00555998
0.005863
0.00603624
0.00602912
-1.69188e-06
-6.26477e-06
4.92432e-05
0.000145538
0.000290255
0.000486056
0.000735954
0.0010429
0.00140901
0.00183473
0.00231765
0.00285097
0.00342154
0.00400821
0.00458192
0.0051066
0.00554035
0.00584591
0.00602195
0.00600265
-7.68207e-05
-8.50347e-05
-3.14745e-05
6.08823e-05
0.000200285
0.000389568
0.00063221
0.000931885
0.00129174
0.00171354
0.00219651
0.0027356
0.00331962
0.00392904
0.00453365
0.0050931
0.00555908
0.00588537
0.00607055
0.00603122
-0.000215537
-0.000226558
-0.000176506
-9.04829e-05
4.03873e-05
0.000219236
0.000450222
0.000738075
0.00108748
0.00150234
0.00198454
0.00253222
0.00313708
0.00378121
0.00443343
0.00505081
0.00557357
0.00593894
0.00614372
0.00607342
-0.000425072
-0.000438969
-0.000394416
-0.000317561
-0.00019894
-3.50829e-05
0.00017894
0.0004491
0.000781966
0.00118419
0.00166139
0.0022162
0.00284539
0.00353532
0.004256
0.00495628
0.00556665
0.00599614
0.00623561
0.00611675
-0.000705606
-0.000722717
-0.000685674
-0.000621105
-0.000519115
-0.000376006
-0.000186193
5.74525e-05
0.000363411
0.000741331
0.00120131
0.00175213
0.0023978
0.00313228
0.00393122
0.00474059
0.00547883
0.00601169
0.00631452
0.0061206
-0.00105521
-0.00107606
-0.00104857
-0.000999731
-0.000919473
-0.000804219
-0.000648179
-0.000443552
-0.000180447
0.000153389
0.000572469
0.00109265
0.0017282
0.00248559
0.00335393
0.00429369
0.00519352
0.00588924
0.00631147
0.00602181
-0.00147054
-0.00149575
-0.00147978
-0.0014502
-0.00139721
-0.00131793
-0.00120721
-0.00105768
-0.000859388
-0.000598982
-0.00025908
0.00018212
0.000750153
0.00146998
0.00235474
0.0033814
0.00447131
0.00540404
0.00606757
0.00573338
-0.0019471
-0.00197721
-0.0019742
-0.00196693
-0.00194643
-0.00191138
-0.00185846
-0.0017824
-0.0016756
-0.00152709
-0.00132111
-0.00103529
-0.000639222
-9.35824e-05
0.000647206
0.00161871
0.00281854
0.00409289
0.00518331
0.00510589
-0.00247962
-0.00251485
-0.0025251
-0.00254173
-0.00255737
-0.00257335
-0.0025897
-0.00260541
-0.00261841
-0.00262497
-0.00261885
-0.00258993
-0.00252186
-0.00238595
-0.00213097
-0.00165299
-0.000718975
0.000862851
0.00293355
0.00390598
-0.00306294
-0.0031029
-0.00312456
-0.00316401
-0.0032161
-0.00328627
-0.00337939
-0.00350099
-0.00365821
-0.00386056
-0.004121
-0.00445728
-0.00489382
-0.00545178
-0.00611177
-0.0067044
-0.00654388
-0.00461569
-0.000884348
0.00171831
-0.00369376
-0.00373669
-0.00376418
-0.00382093
-0.00390447
-0.00402582
-0.00419573
-0.00442779
-0.00474118
-0.00516375
-0.00573681
-0.00652153
-0.00760983
-0.00909265
-0.010946
-0.0127922
-0.0130703
-0.00979654
-0.0040048
-0.000353455
-0.0043742
-0.0044164
-0.00443919
-0.00450171
-0.00460438
-0.00476529
-0.00500139
-0.00533428
-0.00579539
-0.00643182
-0.00731568
-0.00854774
-0.0102777
-0.0125999
-0.0154233
-0.0178141
-0.0179094
-0.0127052
-0.00677036
-0.00162501
-0.0051135
-0.00514227
-0.00513843
-0.00518452
-0.00528573
-0.00546661
-0.00574741
-0.00615613
-0.00673219
-0.00753572
-0.00866692
-0.0102471
-0.0124602
-0.0153507
-0.0187409
-0.0215389
-0.0222964
-0.0177231
-0.0120955
-0.00352128
-0.00594279
-0.00595337
-0.00590155
-0.0059084
-0.00597594
-0.00613921
-0.00642395
-0.00686263
-0.00749563
-0.00839901
-0.0096715
-0.0114479
-0.0139263
-0.0171371
-0.0209985
-0.0245915
-0.0281369
-0.024787
-0.0188996
-0.00585145
-0.0070418
-0.00682334
-0.0066312
-0.00650422
-0.00649869
-0.00662971
-0.00691001
-0.00735848
-0.00801905
-0.00895168
-0.0102631
-0.0120733
-0.0145813
-0.0178124
-0.0218501
-0.025723
-0.0304256
-0.0272955
-0.0212486
-0.00410015
-0.00793628
-0.00802828
-0.00768467
-0.00752181
-0.00737867
-0.00736957
-0.0075194
-0.00785751
-0.00843308
-0.00928866
-0.0105276
-0.0122298
-0.0145835
-0.0175097
-0.0212353
-0.0244537
-0.0281509
-0.0235905
-0.0172236
0.00656046
-0.0118348
-0.00898774
-0.00829961
-0.00753857
-0.00724157
-0.00719785
-0.00738324
-0.00775473
-0.00834977
-0.00918058
-0.0103643
-0.0119205
-0.0140335
-0.0164581
-0.0194439
-0.0212736
-0.0232806
-0.0159496
-0.00707788
0.030261
-0.0113869
-0.0122751
-0.0107403
-0.010172
-0.00936668
-0.00884399
-0.00858531
-0.00859266
-0.00891236
-0.00952143
-0.0105377
-0.011913
-0.0139224
-0.016143
-0.0190158
-0.0201065
-0.0202353
-0.00793006
0.0101233
0.0738234
-0.0361169
-0.0106795
-0.0089393
-0.00739341
-0.00657009
-0.00639537
-0.00661155
-0.00699232
-0.00763226
-0.00843821
-0.00966938
-0.0110835
-0.0130566
-0.0147166
-0.0162634
-0.0139252
-0.00673029
0.0206248
0.0680402
0.174534
1.82789e-06
-1.5011e-05
3.53702e-05
0.000130192
0.000276321
0.000475416
0.000730039
0.00104302
0.00141645
0.0018507
0.00234321
0.00288687
0.00346826
0.00406598
0.00464987
0.00518175
0.00561908
0.0059232
0.00609176
0.00606212
1.56643e-05
-3.30402e-07
5.51446e-05
0.000151143
0.000296
0.000491953
0.000741953
0.00104903
0.00141543
0.0018418
0.00232601
0.00286166
0.0034359
0.00402767
0.00460879
0.00514057
0.00557927
0.00588465
0.00605757
0.00601538
-5.44295e-05
-7.66089e-05
-2.29404e-05
6.91377e-05
0.000208678
0.00039805
0.000640652
0.000940232
0.00130007
0.00172217
0.00220614
0.00274741
0.0033353
0.0039509
0.00456389
0.00513211
0.0056044
0.00593043
0.00611155
0.00604318
-0.000189512
-0.000215913
-0.000165595
-7.97916e-05
5.12748e-05
0.000230242
0.000461194
0.000748931
0.00109827
0.00151338
0.00199665
0.00254683
0.00315631
0.00380749
0.00447156
0.00510104
0.00563298
0.00599849
0.00619755
0.0060894
-0.000397175
-0.000427376
-0.000382508
-0.000305817
-0.000186867
-2.26945e-05
0.000191564
0.000461966
0.000795233
0.00119832
0.00167744
0.00223614
0.00287222
0.00357294
0.00430763
0.00502779
0.00565304
0.00608424
0.00631621
0.00614369
-0.00067681
-0.000710951
-0.000673587
-0.000609105
-0.000506587
-0.000362844
-0.000172338
7.2178e-05
0.00037938
0.000759293
0.0012227
0.00177959
0.00243565
0.00318599
0.00400558
0.00484842
0.005613
0.00615469
0.00645079
0.00617101
-0.00102594
-0.00106455
-0.00103677
-0.00098795
-0.000906972
-0.000790738
-0.000633466
-0.000427196
-0.000161784
0.000175491
0.000599988
0.00112908
0.00177947
0.00255876
0.00344643
0.00444584
0.00540673
0.00613788
0.00656841
0.00612987
-0.00144104
-0.00148487
-0.0014687
-0.00143915
-0.00138533
-0.00130479
-0.00119234
-0.00104039
-0.000838661
-0.000573244
-0.000225773
0.000227438
0.000815423
0.00156975
0.0025176
0.00359673
0.0047959
0.00585515
0.00658952
0.00600097
-0.00191752
-0.00196734
-0.00196434
-0.00195725
-0.00193594
-0.00189952
-0.00184454
-0.00176545
-0.00165428
-0.00149946
-0.00128427
-0.000984698
-0.000567317
1.33435e-05
0.000813829
0.00188642
0.00325667
0.00488155
0.0063001
0.00584718
-0.00244996
-0.00250641
-0.002517
-0.00253414
-0.00254922
-0.00256395
-0.00257817
-0.00259055
-0.00259863
-0.00259832
-0.0025831
-0.00254314
-0.00246399
-0.00232283
-0.00207175
-0.00155827
-0.000298984
0.00216144
0.00492607
0.00564098
-0.00303293
-0.00309633
-0.00311882
-0.00315934
-0.00321139
-0.0032807
-0.00337194
-0.00349031
-0.00364272
-0.00383888
-0.00409326
-0.00442868
-0.00488533
-0.00552632
-0.00638037
-0.00720479
-0.00672863
-0.00339974
0.00108967
0.00417671
-0.00366239
-0.00373197
-0.00376066
-0.00381912
-0.00390345
-0.00402469
-0.00419329
-0.00442259
-0.00473174
-0.00514986
-0.00572326
-0.00652667
-0.00769053
-0.00941749
-0.0118078
-0.0144183
-0.0152334
-0.0112029
-0.00501764
0.000982446
-0.00434011
-0.00441442
-0.00443957
-0.00450502
-0.00460938
-0.00477055
-0.00500544
-0.00533572
-0.00579303
-0.00642658
-0.00731617
-0.00858624
-0.0104424
-0.0131849
-0.0168901
-0.0208897
-0.0231012
-0.0186648
-0.0122119
-0.00356999
-0.00506927
-0.00513633
-0.00513358
-0.00518335
-0.00528849
-0.00547193
-0.00575322
-0.00615965
-0.00673215
-0.00753342
-0.00866791
-0.0102844
-0.0126468
-0.0160432
-0.0206571
-0.0256283
-0.0298314
-0.0261882
-0.0207304
-0.00930487
-0.00588197
-0.00595242
-0.0059035
-0.00591864
-0.00599024
-0.00615481
-0.00643757
-0.00687056
-0.00749883
-0.00838862
-0.00965524
-0.0114429
-0.0140646
-0.01769
-0.022879
-0.0284937
-0.0350865
-0.0326368
-0.0283673
-0.0138164
-0.00691769
-0.00676516
-0.00658339
-0.00646877
-0.00647803
-0.00661977
-0.00690452
-0.00735148
-0.00800199
-0.00891164
-0.0101972
-0.0119875
-0.0145762
-0.0181064
-0.0230944
-0.028391
-0.0349758
-0.0325501
-0.0301631
-0.0112194
-0.00763701
-0.00795359
-0.00761623
-0.00750753
-0.00737904
-0.00737841
-0.00752591
-0.00785383
-0.00840642
-0.00922153
-0.0104125
-0.0120636
-0.0144236
-0.0174791
-0.0217326
-0.0257747
-0.0304618
-0.0272623
-0.0251369
0.00296384
-0.011353
-0.00867789
-0.00802573
-0.00730094
-0.00708488
-0.00710307
-0.00732262
-0.00770364
-0.00828281
-0.00906704
-0.010194
-0.0116817
-0.0137706
-0.0162868
-0.0196305
-0.0221333
-0.0246542
-0.0194431
-0.012036
0.0312739
-0.00874605
-0.0113287
-0.0101624
-0.00995453
-0.009318
-0.00889325
-0.00867056
-0.00866784
-0.0089464
-0.00948044
-0.0104068
-0.0116783
-0.013656
-0.0159437
-0.0192507
-0.0212094
-0.0221023
-0.0107714
0.0102272
0.0820653
-0.0338996
-0.00881944
-0.00733362
-0.00634809
-0.00588366
-0.00587787
-0.00620815
-0.00664116
-0.0073127
-0.00808844
-0.00928845
-0.0106535
-0.0126207
-0.0144236
-0.0161401
-0.0143091
-0.00689309
0.0225718
0.0818133
0.205102
1.70895e-05
-5.36779e-06
4.40909e-05
0.000138605
0.000285464
0.000486095
0.000743124
0.00105964
0.00143808
0.00187925
0.00238101
0.00293659
0.00353265
0.00414741
0.00474925
0.00529765
0.00574645
0.00605318
0.00621649
0.00616878
3.94563e-05
1.68758e-05
7.24386e-05
0.000168381
0.000313797
0.000510792
0.000762453
0.00107208
0.00144227
0.00187407
0.00236588
0.00291172
0.00349875
0.0041064
0.00470442
0.00525217
0.00570206
0.00601002
0.0061784
0.00611783
-2.50511e-05
-5.53635e-05
-1.42849e-06
9.0551e-05
0.000230542
0.000420771
0.000664826
0.000966778
0.00133033
0.00175807
0.00225023
0.00280293
0.00340616
0.00404079
0.00467499
0.00526394
0.00575118
0.00608061
0.00625513
0.00616096
-0.000155125
-0.000190659
-0.000139915
-5.4214e-05
7.72841e-05
0.000257084
0.000489507
0.000779751
0.00113317
0.00155466
0.00204755
0.00261159
0.00324009
0.00391634
0.00460957
0.00526879
0.00582337
0.00619423
0.00638249
0.00623536
-0.000358948
-0.000399014
-0.000353605
-0.000276971
-0.000157482
7.71765e-06
0.000223791
0.000497284
0.000835599
0.00124665
0.00173795
0.00231458
0.00297586
0.00370997
0.00448799
0.00525321
0.00591509
0.00635684
0.00657114
0.00633247
-0.000635407
-0.000680036
-0.000642022
-0.000577503
-0.000474251
-0.000329148
-0.000136279
0.000112205
0.000425835
0.000815882
0.00129491
0.00187537
0.00256555
0.00336199
0.00424678
0.00515986
0.00598741
0.00655311
0.00682019
0.00641825
-0.000981564
-0.00103129
-0.00100276
-0.000953823
-0.000871935
-0.000754024
-0.000593837
-0.000382691
-0.000109398
0.000240344
0.000684289
0.00124343
0.0019393
0.00278609
0.00377544
0.00487406
0.00594637
0.00673762
0.0071205
0.00645342
-0.00139361
-0.00144925
-0.00143229
-0.00140265
-0.00134788
-0.00126553
-0.00114984
-0.000992411
-0.000781736
-0.000502066
-0.00013215
0.000356214
0.000998702
0.00183264
0.00287702
0.00414987
0.00554592
0.00675791
0.00739863
0.00643085
-0.0018667
-0.00192915
-0.00192542
-0.00191843
-0.00189642
-0.0018584
-0.00180033
-0.0017158
-0.00159561
-0.00142635
-0.00118835
-0.000852942
-0.000379568
0.000287745
0.00122112
0.00247059
0.00414214
0.00606176
0.00727477
0.00642013
-0.00239509
-0.00246511
-0.00247517
-0.00249288
-0.00250785
-0.0025217
-0.00253366
-0.00254159
-0.0025421
-0.00252983
-0.00249669
-0.00243144
-0.0023205
-0.00214879
-0.00187054
-0.00127697
0.000167409
0.00303688
0.00569534
0.00634185
-0.00297282
-0.00305093
-0.00307326
-0.00311512
-0.00316812
-0.00323783
-0.00332838
-0.00344445
-0.0035926
-0.00378274
-0.00403109
-0.00436729
-0.00485526
-0.00561946
-0.0067351
-0.0078681
-0.00739438
-0.0034779
0.00129685
0.00468402
-0.0035947
-0.00368016
-0.00370906
-0.00376991
-0.00385678
-0.00398035
-0.00415058
-0.00438064
-0.00469031
-0.00511116
-0.00569695
-0.00654356
-0.00783409
-0.00989433
-0.0128817
-0.0162397
-0.0173034
-0.0126668
-0.00623397
0.000301034
-0.00426092
-0.00435354
-0.00437985
-0.00444927
-0.00455806
-0.00472364
-0.0049625
-0.00529658
-0.00575893
-0.00640318
-0.00732077
-0.00867022
-0.0107355
-0.0139561
-0.0184921
-0.0234892
-0.0265126
-0.0222369
-0.0156521
-0.0062399
-0.00496947
-0.00505689
-0.00505546
-0.00511094
-0.00522348
-0.00541457
-0.005703
-0.006116
-0.00669611
-0.00751085
-0.00867558
-0.0103847
-0.0129636
-0.0168631
-0.0223506
-0.0282753
-0.0334201
-0.0303589
-0.0243823
-0.0128462
-0.00575234
-0.00584987
-0.00580237
-0.00582707
-0.00590885
-0.00608359
-0.00637515
-0.0068153
-0.00744963
-0.0083481
-0.00963363
-0.0114905
-0.014271
-0.0183006
-0.0241139
-0.0301553
-0.0366273
-0.0340481
-0.0291865
-0.0160255
-0.00672893
-0.00660898
-0.00642961
-0.0063271
-0.00635215
-0.0065098
-0.006808
-0.00726455
-0.00791842
-0.00882979
-0.0101213
-0.011932
-0.0145932
-0.0183195
-0.0236171
-0.0287967
-0.0341448
-0.0313973
-0.0283086
-0.011703
-0.00731777
-0.00769701
-0.00737339
-0.0072988
-0.00719535
-0.00721767
-0.00738208
-0.00772127
-0.00827427
-0.00908197
-0.0102558
-0.011885
-0.0142612
-0.0173896
-0.0217162
-0.0255008
-0.0290645
-0.0254705
-0.0215556
0.00325453
-0.0110103
-0.00836301
-0.00766148
-0.00694192
-0.00676285
-0.00682353
-0.00707671
-0.00748121
-0.00806562
-0.00884296
-0.00992822
-0.0113878
-0.0134484
-0.0160091
-0.0193399
-0.0217108
-0.0232299
-0.0177206
-0.00804669
0.0324928
-0.00767035
-0.0105209
-0.00946808
-0.00937721
-0.0088232
-0.00847254
-0.00829897
-0.0083333
-0.00862169
-0.00914764
-0.0100314
-0.0112715
-0.0132074
-0.0155759
-0.0189447
-0.0209239
-0.0214242
-0.00947819
0.0137503
0.0853796
-0.0331828
-0.0079794
-0.00647884
-0.00562656
-0.00528279
-0.00534791
-0.0057162
-0.0061801
-0.00685125
-0.00762353
-0.00877569
-0.0101269
-0.0120559
-0.0139348
-0.0156739
-0.0138173
-0.00554612
0.0252218
0.0881577
0.213072
3.53489e-05
9.54614e-06
5.85424e-05
0.000153151
0.000301156
0.000503906
0.000764156
0.00108528
0.00147011
0.00191988
0.0024329
0.00300272
0.003616
0.00425042
0.00487273
0.00543977
0.00590175
0.00621289
0.00637294
0.00631165
6.25409e-05
3.62366e-05
9.19369e-05
0.000188163
0.000334636
0.000533424
0.000787801
0.00110137
0.00147713
0.0019166
0.00241866
0.0029777
0.00358062
0.00420791
0.00482641
0.0053931
0.00585649
0.00616883
0.00633395
0.00625961
2.03547e-06
-3.28108e-05
2.13838e-05
0.000113637
0.000254645
0.000446599
0.000693311
0.000999216
0.0013685
0.00180434
0.00230765
0.00287521
0.00349788
0.00415506
0.00481423
0.00542705
0.00593159
0.00626611
0.00643501
0.00632082
-0.00012408
-0.000164712
-0.000113589
-2.75902e-05
0.000104959
0.00028654
0.000521752
0.000816233
0.00117593
0.00160655
0.00211235
0.00269408
0.0033462
0.00405144
0.00477802
0.00547025
0.00604946
0.00642659
0.00660423
0.00642542
-0.00032458
-0.000370177
-0.000324299
-0.000247312
-0.000126646
4.05542e-05
0.000259798
0.000538176
0.000883843
0.00130575
0.00181275
0.00241141
0.00310193
0.00387553
0.00469993
0.00551274
0.00621182
0.00666285
0.00685657
0.00656407
-0.000598112
-0.000648658
-0.000610098
-0.000545147
-0.000440544
-0.000293139
-9.65913e-05
0.000157605
0.00047992
0.000882959
0.00138113
0.00198923
0.00271822
0.00356691
0.00451565
0.00549855
0.00638446
0.00696583
0.00719234
0.00669742
-0.000941465
-0.000997504
-0.000968382
-0.000918971
-0.00083561
-0.000715158
-0.000550864
-0.000333283
-5.01141e-05
0.000314566
0.000780843
0.001373
0.00211615
0.00302501
0.00410684
0.00530598
0.00647035
0.0072911
0.00759162
0.00677669
-0.0013506
-0.00141303
-0.00139549
-0.00136544
-0.00130923
-0.00122433
-0.00110443
-0.000940304
-0.000719257
-0.000423765
-2.99176e-05
0.000494517
0.00119064
0.00210249
0.0032505
0.00465445
0.00618637
0.00745559
0.00793774
0.00679515
-0.00182042
-0.00189022
-0.00188603
-0.0018789
-0.00185576
-0.00181556
-0.0017537
-0.00166303
-0.00153328
-0.00134949
-0.00108973
-0.000722045
-0.000201442
0.000531868
0.00154702
0.00291666
0.00473666
0.00678207
0.00778652
0.00684904
-0.00234483
-0.00242287
-0.00243272
-0.00245078
-0.0024653
-0.00247781
-0.00248711
-0.00249051
-0.00248402
-0.00246164
-0.00241495
-0.00233352
-0.00220934
-0.00204252
-0.00179616
-0.00123015
0.000368106
0.00352789
0.0060601
0.00685893
-0.00291727
-0.00300423
-0.0030268
-0.00306978
-0.00312336
-0.00319308
-0.00328277
-0.00339698
-0.00354247
-0.00373025
-0.00397983
-0.00432965
-0.00486821
-0.00577366
-0.00712881
-0.00838615
-0.00792138
-0.00385992
0.000957305
0.00494424
-0.00353148
-0.00362674
-0.00365638
-0.00371937
-0.00380822
-0.00393357
-0.00410523
-0.00433667
-0.00464891
-0.0050769
-0.00568268
-0.00658113
-0.00799753
-0.0103351
-0.0137582
-0.017593
-0.0190119
-0.0146528
-0.00806819
-0.000518386
-0.00418632
-0.00429036
-0.00431824
-0.00439117
-0.00450355
-0.00467271
-0.0049151
-0.00525327
-0.0057221
-0.00637989
-0.0073288
-0.00875117
-0.0109753
-0.0145343
-0.0196144
-0.0252193
-0.0289961
-0.0254864
-0.0188245
-0.00854602
-0.00487613
-0.00497657
-0.00497726
-0.00503779
-0.00515601
-0.00535286
-0.0056468
-0.00606532
-0.00665254
-0.00748011
-0.0086723
-0.0104407
-0.0131638
-0.0173491
-0.0233367
-0.0296547
-0.0352918
-0.0328801
-0.0272072
-0.0154657
-0.00563213
-0.00574641
-0.00570176
-0.00573455
-0.00582418
-0.00600634
-0.00630405
-0.00674897
-0.00738711
-0.0082908
-0.0095875
-0.0114721
-0.0143395
-0.0185183
-0.0246205
-0.0305893
-0.0368474
-0.0344652
-0.0305768
-0.0175881
-0.00656036
-0.00646082
-0.00628601
-0.00619442
-0.00623072
-0.00639911
-0.00670579
-0.00716728
-0.00782111
-0.00872833
-0.010011
-0.0118049
-0.0144917
-0.0182296
-0.0235194
-0.0283943
-0.0330653
-0.0304523
-0.028694
-0.0119671
-0.00706917
-0.00749091
-0.00717105
-0.00712084
-0.0070341
-0.00707088
-0.00724458
-0.00758717
-0.00813503
-0.00892989
-0.0100831
-0.0116653
-0.0140208
-0.0171264
-0.02138
-0.0249141
-0.0280146
-0.0245985
-0.0218624
0.00400943
-0.0106873
-0.00807862
-0.00736861
-0.00666933
-0.00651087
-0.00659441
-0.00686512
-0.00727944
-0.00786038
-0.00861996
-0.00968104
-0.0110931
-0.0131142
-0.0156517
-0.0189357
-0.0212002
-0.0224777
-0.0173099
-0.00842638
0.0341174
-0.00708537
-0.0101027
-0.00906965
-0.00904363
-0.00852153
-0.0081995
-0.00804318
-0.00808428
-0.00836636
-0.00887211
-0.00972155
-0.0109239
-0.0128281
-0.0152045
-0.0186183
-0.0206729
-0.0212137
-0.00928885
0.0138758
0.088546
-0.0326167
-0.00740378
-0.00590512
-0.00511747
-0.00483699
-0.00495092
-0.00535126
-0.00583516
-0.0065089
-0.00727106
-0.00839633
-0.00971565
-0.0116189
-0.0134851
-0.0152297
-0.0132711
-0.00482224
0.0265407
0.090155
0.218861
5.50468e-05
2.80591e-05
7.72779e-05
0.000172591
0.000322195
0.00052752
0.000791548
0.00111798
0.00151005
0.00196943
0.00249483
0.00308009
0.00371182
0.00436683
0.00501043
0.00559679
0.00607274
0.00638954
0.00654795
0.00647649
8.44321e-05
5.66325e-05
0.000112745
0.000209723
0.000357753
0.000558985
0.000816934
0.00113554
0.00151821
0.00196693
0.00248102
0.00305523
0.00367655
0.00432468
0.00496505
0.00555181
0.00602969
0.00634759
0.00651062
0.00642606
2.65201e-05
-1.01762e-05
4.44976e-05
0.000137511
0.000280091
0.000474517
0.00072488
0.001036
0.00141256
0.00185833
0.00237481
0.00295925
0.00360281
0.00428512
0.00497093
0.00560862
0.00613119
0.00647168
0.0066358
0.00650615
-9.67024e-05
-0.000139445
-8.77648e-05
-9.6632e-07
0.00013323
0.00031741
0.000556507
0.00085663
0.00122434
0.00166612
0.0021871
0.00278879
0.00346582
0.00420312
0.0049644
0.00569003
0.0062937
0.0066772
0.00684422
0.0066396
-0.000294478
-0.000342384
-0.000295882
-0.00021803
-9.55796e-05
7.44588e-05
0.000297997
0.000582704
0.000937516
0.00137241
0.0018975
0.00252049
0.00324125
0.00405726
0.00492838
0.00578763
0.00652166
0.00697988
0.0071509
0.0068139
-0.000565408
-0.000618436
-0.000579198
-0.000513315
-0.000406778
-0.000256267
-5.49629e-05
0.000206332
0.000539051
0.000957122
0.00147673
0.002115
0.00288657
0.00378487
0.00479545
0.00584342
0.00678033
0.00736989
0.00754919
0.00697912
-0.000906162
-0.000964865
-0.000935047
-0.000884688
-0.000799316
-0.000675594
-0.00050623
-0.000280993
1.35342e-05
0.000394843
0.000885174
0.00151167
0.00230279
0.00327568
0.00443618
0.00572306
0.00696057
0.00779095
0.00799717
0.00706606
-0.00131254
-0.00137785
-0.00135966
-0.00132877
-0.00127065
-0.00118257
-0.00105767
-0.000885898
-0.000653435
-0.000341136
7.71722e-05
0.000636928
0.00138264
0.00235908
0.00359705
0.00510203
0.00672811
0.00801117
0.00832696
0.00705443
-0.00177922
-0.00185216
-0.00184749
-0.00183979
-0.00181511
-0.0017722
-0.00170598
-0.00160859
-0.00146884
-0.00127054
-0.000990169
-0.000593939
-3.52715e-05
0.000744705
0.0018092
0.00324076
0.0051362
0.00720817
0.00801923
0.00704516
-0.00229976
-0.00238126
-0.00239091
-0.00240889
-0.00242255
-0.00243329
-0.00243955
-0.00243825
-0.00242502
-0.00239376
-0.00233666
-0.00224613
-0.00212358
-0.00199034
-0.00182633
-0.00137251
0.000202806
0.00341516
0.00594448
0.00696962
-0.00286708
-0.00295788
-0.00298066
-0.00302428
-0.00307797
-0.00314727
-0.00323588
-0.00334838
-0.00349208
-0.00367971
-0.00393515
-0.00430751
-0.00491183
-0.00598428
-0.00764482
-0.00927265
-0.0089564
-0.00485507
0.000243674
0.00476884
-0.00347401
-0.00357354
-0.00360388
-0.00366838
-0.00375856
-0.0038851
-0.0040579
-0.00429096
-0.00460687
-0.00504439
-0.00567426
-0.00663029
-0.00817685
-0.0107942
-0.0146734
-0.0189957
-0.0208343
-0.0166808
-0.00967785
-0.00139091
-0.00411839
-0.00422738
-0.00425661
-0.00433212
-0.00444712
-0.00461901
-0.0048644
-0.00520667
-0.00568275
-0.00635564
-0.00733759
-0.00883219
-0.0112076
-0.0150681
-0.0206386
-0.0267111
-0.0308206
-0.0277013
-0.0207911
-0.0100631
-0.00479241
-0.00489847
-0.00490111
-0.00496538
-0.00508755
-0.00528848
-0.00558662
-0.00600999
-0.00660433
-0.00744505
-0.00866434
-0.0104915
-0.0133334
-0.0177239
-0.0240701
-0.030526
-0.0359229
-0.0336464
-0.0280246
-0.0165636
-0.00552694
-0.00564816
-0.00560587
-0.00564414
-0.00573902
-0.00592621
-0.00622824
-0.00667679
-0.00731849
-0.00822761
-0.00953552
-0.0114461
-0.0143745
-0.0186131
-0.0248653
-0.0305934
-0.0359405
-0.0335738
-0.0299307
-0.0177626
-0.00642006
-0.00632969
-0.00615887
-0.00607502
-0.00611811
-0.00629274
-0.00660414
-0.007068
-0.00772113
-0.0086248
-0.00990131
-0.0116862
-0.01437
-0.0180755
-0.0232652
-0.0277653
-0.0316073
-0.0288753
-0.0271775
-0.0115167
-0.00689056
-0.0073285
-0.00700717
-0.00696992
-0.00689197
-0.00693651
-0.0071146
-0.00745738
-0.00800008
-0.0087841
-0.00992007
-0.0114725
-0.0137965
-0.0168477
-0.020983
-0.0242308
-0.0267594
-0.0231831
-0.0203077
0.00481404
-0.0104378
-0.00785772
-0.00715156
-0.00646949
-0.00632024
-0.00641356
-0.00669075
-0.00710669
-0.0076821
-0.00842815
-0.00946783
-0.0108459
-0.0128309
-0.0153203
-0.0185136
-0.0206112
-0.0215264
-0.016287
-0.00719262
0.0352656
-0.00681744
-0.00987562
-0.00883089
-0.00882618
-0.00831127
-0.00799793
-0.00784592
-0.00788595
-0.00816022
-0.00864903
-0.0094751
-0.0106467
-0.0125222
-0.0148722
-0.0182313
-0.0201621
-0.0204818
-0.00844832
0.0150129
0.0903714
-0.0323172
-0.00710589
-0.00560071
-0.00482537
-0.00456576
-0.00469945
-0.00511299
-0.00560242
-0.0062724
-0.00702288
-0.00812688
-0.00941995
-0.0112914
-0.0131213
-0.0148027
-0.0127312
-0.0040184
0.0277092
0.0919078
0.221599
7.39805e-05
4.6694e-05
9.64304e-05
0.000192775
0.000344231
0.000552377
0.000820439
0.00115244
0.00155198
0.00202113
0.00255895
0.00315947
0.00380915
0.00448418
0.00514824
0.0057531
0.00624258
0.0065654
0.00672308
0.0066435
0.000104341
7.60512e-05
0.00013274
0.000230769
0.000380648
0.000584661
0.000846574
0.00117065
0.00156067
0.00201905
0.00254549
0.00313496
0.00377456
0.00444305
0.00510455
0.00571058
0.00620243
0.0065261
0.00668772
0.00659501
4.80774e-05
1.07733e-05
6.60697e-05
0.000160168
0.000304652
0.000501946
0.000756424
0.00107328
0.00145764
0.0019138
0.00244378
0.00304528
0.00370968
0.00441597
0.00512711
0.00578823
0.00632772
0.00667401
0.00683392
0.00669178
-7.31205e-05
-0.000116564
-6.4205e-05
2.37368e-05
0.000159939
0.000347156
0.000590649
0.000896974
0.00127326
0.00172667
0.0022631
0.00288476
0.00358688
0.00435387
0.00514742
0.00590367
0.0065294
0.00691841
0.00707506
0.00684921
-0.000268796
-0.000317478
-0.000270242
-0.000191174
-6.65773e-05
0.000106736
0.000335071
0.000626638
0.000991087
0.00143931
0.00198256
0.00262986
0.00338314
0.00423504
0.00514814
0.00604877
0.00681303
0.007276
0.00742377
0.00705056
-0.000537588
-0.000591458
-0.000551448
-0.00048429
-0.000375476
-0.000221458
-1.49584e-05
0.00025386
0.000597298
0.00103043
0.0015709
0.0022372
0.00304373
0.00399118
0.00505735
0.00616185
0.00714113
0.00773357
0.00786355
0.00723407
-0.000876133
-0.000935754
-0.000905165
-0.000853529
-0.000765837
-0.000638502
-0.000463724
-0.000230562
7.53859e-05
0.000472949
0.000986144
0.00164438
0.00247861
0.00350742
0.00473491
0.00609485
0.00739059
0.00822009
0.00832905
0.00730769
-0.00128014
-0.00134645
-0.00132757
-0.00129551
-0.0012352
-0.00114366
-0.00101351
-0.000834018
-0.000590389
-0.000262183
0.000178485
0.000769327
0.00155704
0.00258671
0.0038955
0.0054793
0.00717664
0.0084546
0.00860451
0.00723253
-0.0017441
-0.00181816
-0.00181296
-0.00180436
-0.00177785
-0.00173199
-0.00166125
-0.00155723
-0.00140803
-0.00119662
-0.000898555
-0.000479348
0.00010731
0.000917089
0.00200873
0.00347232
0.00541245
0.00748121
0.00811175
0.00711961
-0.00226129
-0.00234405
-0.00235344
-0.00237097
-0.00238344
-0.00239215
-0.00239524
-0.00238942
-0.00237018
-0.00233171
-0.00226757
-0.00217394
-0.00206279
-0.00197785
-0.00191731
-0.00160409
-7.92342e-05
0.00316747
0.00572005
0.00694692
-0.0028242
-0.00291644
-0.00293934
-0.00298312
-0.00303651
-0.00310502
-0.00319232
-0.00330323
-0.00344583
-0.00363488
-0.00389924
-0.00429929
-0.00497619
-0.00622396
-0.00820222
-0.010213
-0.010078
-0.00589078
-0.000493861
0.0045422
-0.00342504
-0.00352619
-0.00355709
-0.00362248
-0.00371335
-0.00384049
-0.00401398
-0.00424854
-0.00456847
-0.00501649
-0.00567217
-0.00668832
-0.00836755
-0.011268
-0.0156256
-0.0205137
-0.0226341
-0.0184501
-0.0110023
-0.0021375
-0.00406094
-0.0041718
-0.00420212
-0.00427933
-0.00439602
-0.00456972
-0.00481737
-0.00516325
-0.00564647
-0.00633467
-0.00734994
-0.00891667
-0.0114417
-0.0155965
-0.0216499
-0.0281647
-0.0323465
-0.0292171
-0.0221591
-0.0111553
-0.00472287
-0.00483107
-0.00483531
-0.0049021
-0.00502683
-0.00523043
-0.00553151
-0.00595881
-0.00655979
-0.00741359
-0.00866013
-0.010544
-0.0135033
-0.0180891
-0.0247641
-0.0313581
-0.0363974
-0.0339311
-0.0284894
-0.017185
-0.00544197
-0.00556587
-0.00552542
-0.00556716
-0.00566525
-0.00585546
-0.00616014
-0.00661114
-0.00725592
-0.00817067
-0.00949151
-0.0114281
-0.0144189
-0.0187079
-0.0250916
-0.0306363
-0.0352533
-0.0326793
-0.0294848
-0.0176488
-0.00631075
-0.00622429
-0.00605677
-0.00597808
-0.00602522
-0.00620324
-0.00651685
-0.00698128
-0.00763312
-0.00853366
-0.00980715
-0.0115882
-0.014273
-0.0179599
-0.0230787
-0.0273079
-0.0305749
-0.0276495
-0.0262723
-0.0108951
-0.00676593
-0.00720957
-0.00688585
-0.00685488
-0.00678082
-0.00682871
-0.00700798
-0.00734892
-0.00788624
-0.00866039
-0.00978334
-0.0113143
-0.0136133
-0.0166138
-0.0206524
-0.0236891
-0.0258055
-0.0220873
-0.0194745
0.00567224
-0.0102578
-0.00769636
-0.00699847
-0.00632878
-0.0061843
-0.00628109
-0.00655925
-0.00697273
-0.00754171
-0.00827555
-0.00929847
-0.0106507
-0.0126067
-0.0150435
-0.0181508
-0.0201089
-0.0207789
-0.0154499
-0.00652211
0.0362878
-0.00668438
-0.00975075
-0.00868894
-0.00869098
-0.00817466
-0.00786104
-0.00770676
-0.00774115
-0.00800753
-0.0084818
-0.00929261
-0.0104383
-0.0122921
-0.0146002
-0.017893
-0.0197156
-0.0198682
-0.00767727
0.0158238
0.0918067
-0.0321342
-0.00693324
-0.00542339
-0.00464934
-0.00439737
-0.00453785
-0.00495635
-0.00544433
-0.00611051
-0.00684888
-0.00794029
-0.00920956
-0.0110555
-0.0128335
-0.0144402
-0.0122225
-0.0033237
0.0287224
0.0930955
0.223432
9.07959e-05
6.35868e-05
0.000113963
0.000211456
0.000364787
0.000575695
0.000847638
0.00118491
0.00159146
0.00206968
0.0026189
0.00323329
0.00389917
0.00459206
0.00527429
0.00589555
0.00639709
0.0067255
0.00688293
0.00679685
0.00012158
9.32273e-05
0.000150561
0.000249748
0.000401512
0.00060829
0.000874075
0.00120341
0.00160041
0.00206784
0.00260571
0.00320913
0.00386524
0.00455201
0.00523229
0.00585534
0.00635958
0.00668854
0.00684919
0.00674994
6.63754e-05
2.89735e-05
8.49488e-05
0.000180247
0.000326686
0.000526853
0.000785373
0.00110776
0.00149954
0.00196543
0.00250789
0.00312493
0.00380809
0.00453563
0.005269
0.00595054
0.00650468
0.00685607
0.00701239
0.00686023
-5.34265e-05
-9.69926e-05
-4.39117e-05
4.52918e-05
0.000183557
0.000373818
0.000621631
0.000933935
0.00131834
0.00178259
0.00233318
0.00297283
0.00369725
0.00449023
0.00531169
0.00609412
0.00673845
0.00713186
0.00727909
0.00703626
-0.00024754
-0.00029636
-0.00024836
-0.00016796
-4.11716e-05
0.0001354
0.000368408
0.000666526
0.00104001
0.0015005
0.00206012
0.00272889
0.00350956
0.00439341
0.00534237
0.00627779
0.00706693
0.00753285
0.00765892
0.00725714
-0.000514663
-0.000568686
-0.000527883
-0.000459341
-0.00034823
-0.000190765
2.07296e-05
0.000296633
0.000649964
0.00109672
0.00165569
0.00234637
0.00318333
0.00417199
0.00528478
0.00643625
0.00745005
0.00804277
0.00812637
0.00745049
-0.000851437
-0.000911231
-0.00087986
-0.000826847
-0.000736839
-0.000605995
-0.000426086
-0.000185579
0.000130733
0.000542753
0.0010759
0.00176144
0.00263246
0.00370697
0.00498905
0.00640968
0.00775376
0.0085792
0.00859661
0.00750424
-0.00125351
-0.00132003
-0.00130044
-0.00126711
-0.00120462
-0.00110974