/*--------------------------------*- C++ -*----------------------------------*\
  =========                 |
  \\      /  F ield         | OpenFOAM: The Open Source CFD Toolbox
   \\    /   O peration     | Website:  https://openfoam.org
    \\  /    A nd           | Version:  10
     \\/     M anipulation  |
\*---------------------------------------------------------------------------*/
FoamFile
{
    format      ascii;
    class       surfaceScalarField;
    location    "8.125";
    object      phi;
}
// * * * * * * * * * * * * * * * * * * * * * * * * * * * * * * * * * * * * * //

dimensions      [0 3 -1 0 0 0 0];

internalField   nonuniform List<scalar> 
22800
(
-2.91756e-06
3.69375e-06
-7.72176e-07
-9.19547e-06
6.66636e-06
-3.88455e-07
-1.66666e-05
7.64641e-06
-1.75243e-07
-2.46453e-05
8.04291e-06
-6.4207e-08
-3.28719e-05
8.29628e-06
-6.97732e-08
-4.12438e-05
8.53288e-06
-1.60964e-07
-4.96544e-05
8.74199e-06
-3.31394e-07
-5.79207e-05
8.86023e-06
-5.93879e-07
-6.57482e-05
8.79919e-06
-9.71688e-07
-7.27078e-05
8.45258e-06
-1.49303e-06
-7.82223e-05
7.70118e-06
-2.18669e-06
-8.15752e-05
6.42727e-06
-3.07435e-06
-8.19593e-05
4.54253e-06
-4.15844e-06
-7.85813e-05
2.02935e-06
-5.40736e-06
-7.08476e-05
-1.01093e-06
-6.72275e-06
-5.86333e-05
-4.28231e-06
-7.93199e-06
-4.26562e-05
-7.20991e-06
-8.76715e-06
-2.48244e-05
-8.95093e-06
-8.88087e-06
-8.31708e-06
-8.50364e-06
-8.00371e-06
-3.70477e-06
-4.6123e-06
-5.71734e-06
1.14983e-05
-2.08721e-06
-1.63322e-05
1.92653e-05
-1.98414e-06
-2.87172e-05
2.18794e-05
-1.848e-06
-4.18421e-05
2.28807e-05
-1.71289e-06
-5.52623e-05
2.33994e-05
-1.68292e-06
-6.87506e-05
2.37626e-05
-1.74136e-06
-8.20874e-05
2.39648e-05
-1.88606e-06
-9.49574e-05
2.38685e-05
-2.1382e-06
-0.000106897
2.327e-05
-2.53102e-06
-0.000117261
2.19206e-05
-3.10468e-06
-0.0001252
1.95421e-05
-3.90126e-06
-0.000129669
1.58505e-05
-4.95413e-06
-0.000129524
1.06683e-05
-6.27099e-06
-0.000123677
4.01102e-06
-7.82837e-06
-0.000111282
-3.91149e-06
-9.49459e-06
-9.21448e-05
-1.24104e-05
-1.10094e-05
-6.73395e-05
-2.00032e-05
-1.2012e-05
-3.96506e-05
-2.45864e-05
-1.20534e-05
-1.38524e-05
-2.36151e-05
-1.06867e-05
-1.19215e-05
-5.63565e-06
-6.67384e-06
2.09944e-05
-2.82228e-06
-1.88974e-05
3.43989e-05
-2.91005e-06
-3.30605e-05
3.88686e-05
-2.82608e-06
-4.79999e-05
4.04927e-05
-2.67249e-06
-6.32305e-05
4.12353e-05
-2.60531e-06
-7.85115e-05
4.16629e-05
-2.61929e-06
-9.3616e-05
4.1789e-05
-2.7197e-06
-0.000108222
4.14106e-05
-2.93657e-06
-0.00012185
4.02124e-05
-3.31441e-06
-0.000133818
3.77974e-05
-3.90871e-06
-0.000143209
3.37134e-05
-4.77982e-06
-0.000148879
2.75037e-05
-5.98277e-06
-0.000149473
1.88142e-05
-7.55254e-06
-0.000143558
7.56542e-06
-9.46914e-06
-0.000129952
-5.94428e-06
-1.15732e-05
-0.000108198
-2.06086e-05
-1.35561e-05
-7.93219e-05
-3.39629e-05
-1.49162e-05
-4.66039e-05
-4.22899e-05
-1.50144e-05
-1.59905e-05
-4.10002e-05
-1.32283e-05
-2.11819e-05
-6.73005e-06
-6.88474e-06
3.12472e-05
-3.36803e-06
-1.96169e-05
5.07585e-05
-3.62733e-06
-3.43594e-05
5.72036e-05
-3.59264e-06
-4.992e-05
5.94859e-05
-3.43259e-06
-6.58337e-05
6.04952e-05
-3.34629e-06
-8.19014e-05
6.10693e-05
-3.33863e-06
-9.79488e-05
6.12596e-05
-3.42315e-06
-0.000113712
6.08144e-05
-3.64029e-06
-0.000128771
5.932e-05
-4.0487e-06
-0.00014248
5.62311e-05
-4.72455e-06
-0.000153904
5.08942e-05
-5.75719e-06
-0.000161772
4.2609e-05
-7.23721e-06
-0.000164476
3.07538e-05
-9.23625e-06
-0.000160163
1.50237e-05
-1.17706e-05
-0.000147085
-4.30514e-06
-1.47173e-05
-0.000124027
-2.60615e-05
-1.76055e-05
-9.16497e-05
-4.6617e-05
-1.97228e-05
-5.37064e-05
-6.0167e-05
-2.00662e-05
-1.77803e-05
-5.92554e-05
-1.76709e-05
-3.01187e-05
-8.84352e-06
-6.76791e-06
4.17934e-05
-3.77825e-06
-1.95455e-05
6.77252e-05
-4.18911e-06
-3.44049e-05
7.62622e-05
-4.1992e-06
-5.01591e-05
7.92844e-05
-4.0443e-06
-6.6386e-05
8.06835e-05
-3.96132e-06
-8.29583e-05
8.16083e-05
-3.96683e-06
-9.97934e-05
8.21788e-05
-4.08405e-06
-0.000116735
8.2123e-05
-4.36657e-06
-0.000133476
8.09534e-05
-4.89239e-06
-0.000149469
7.79905e-05
-5.76699e-06
-0.000163812
7.2362e-05
-7.12434e-06
-0.000175132
6.30455e-05
-9.11661e-06
-0.000181499
4.90029e-05
-1.18827e-05
-0.000180438
2.94525e-05
-1.54897e-05
-0.000169314
4.46225e-06
-1.98911e-05
-0.000145685
-2.52293e-05
-2.4461e-05
-0.000109282
-5.49183e-05
-2.8102e-05
-6.41668e-05
-7.61504e-05
-2.91317e-05
-2.04167e-05
-7.72232e-05
-2.57823e-05
-3.78618e-05
-1.26736e-05
-6.4947e-06
5.24167e-05
-4.12865e-06
-1.91005e-05
8.50169e-05
-4.68584e-06
-3.38659e-05
9.57684e-05
-4.74087e-06
-4.96153e-05
9.96339e-05
-4.6001e-06
-6.59782e-05
0.000101583
-4.53683e-06
-8.29169e-05
0.000103128
-4.58133e-06
-0.000100472
0.000104503
-4.76931e-06
-0.000118639
0.000105462
-5.17165e-06
-0.000137288
0.000105494
-5.8927e-06
-0.000156047
0.000103829
-7.0796e-06
-0.000174153
9.94008e-05
-8.93206e-06
-0.000190235
9.08306e-05
-1.17031e-05
-0.000202078
7.65119e-05
-1.56667e-05
-0.000206484
5.48924e-05
-2.10339e-05
-0.000199318
2.50955e-05
-2.77986e-05
-0.00017671
-1.2299e-05
-3.55389e-05
-0.000136122
-5.31933e-05
-4.23126e-05
-8.10628e-05
-8.6016e-05
-4.51938e-05
-2.51298e-05
-9.26554e-05
-4.05007e-05
-4.35872e-05
-1.94044e-05
-6.11662e-06
6.3013e-05
-4.47962e-06
-1.8409e-05
0.000102502
-5.19321e-06
-3.29241e-05
0.000115578
-5.29471e-06
-4.84894e-05
0.000120368
-5.16894e-06
-6.47847e-05
0.000123007
-5.12824e-06
-8.18728e-05
0.000125436
-5.21963e-06
-9.9941e-05
0.000128066
-5.49519e-06
-0.000119182
0.000130751
-6.04827e-06
-0.000139711
0.000133042
-7.01854e-06
-0.000161446
0.000134177
-8.61167e-06
-0.000183918
0.000132998
-1.11251e-05
-0.000205962
0.000127845
-1.49713e-05
-0.000225295
0.000116509
-2.06639e-05
-0.000238092
9.64024e-05
-2.87134e-05
-0.000238772
6.51977e-05
-3.94214e-05
-0.000220567
2.22448e-05
-5.27495e-05
-0.00017752
-3.03612e-05
-6.58782e-05
-0.000109943
-8.01474e-05
-7.34461e-05
-3.50139e-05
-0.000100094
-6.74908e-05
-4.6753e-05
-3.18481e-05
-5.6466e-06
7.35268e-05
-4.86722e-06
-1.75024e-05
0.000120116
-5.75752e-06
-3.15999e-05
0.000135579
-5.90363e-06
-4.67484e-05
0.000141299
-5.78235e-06
-6.26676e-05
0.000144677
-5.75074e-06
-7.95179e-05
0.000148163
-5.87612e-06
-9.76434e-05
0.000152423
-6.2308e-06
-0.000117465
0.000157509
-6.93645e-06
-0.000139412
0.000163166
-8.17724e-06
-0.000163818
0.000168818
-1.02352e-05
-0.000190721
0.000173445
-1.35441e-05
-0.000219503
0.000175385
-1.87584e-05
-0.000248319
0.00017213
-2.68037e-05
-0.000273267
0.000160172
-3.88217e-05
-0.000287453
0.000135262
-5.5878e-05
-0.000280773
9.33819e-05
-7.78175e-05
-0.000241819
3.30738e-05
-0.000102389
-0.00016224
-3.99738e-05
-0.000119753
-5.83707e-05
-8.98876e-05
-0.000114075
-4.83218e-05
-5.68018e-05
-5.10962e-06
8.39564e-05
-5.32004e-06
-1.64292e-05
0.000137852
-6.41631e-06
-2.99263e-05
0.000155676
-6.59974e-06
-4.43593e-05
0.000162191
-6.45894e-06
-5.9466e-05
0.000166188
-6.4045e-06
-7.54887e-05
0.000170713
-6.52761e-06
-9.29131e-05
0.000176771
-6.92358e-06
-0.000112379
0.00018472
-7.7453e-06
-0.000134653
0.000194667
-9.22753e-06
-0.000160576
0.000206484
-1.17427e-05
-0.000190909
0.00021967
-1.58914e-05
-0.000225993
0.000233107
-2.26375e-05
-0.000265146
0.000244742
-3.34584e-05
-0.000305679
0.000251061
-5.03572e-05
-0.000341253
0.000246225
-7.5389e-05
-0.000359536
0.000220454
-0.00010879
-0.000339201
0.000158412
-0.000145673
-0.000256633
5.12494e-05
-0.000173791
-0.000113109
-6.23418e-05
-0.00017107
-5.92081e-05
-0.000102222
-4.57488e-06
9.44048e-05
-5.87343e-06
-1.53262e-05
0.000155818
-7.21496e-06
-2.80553e-05
0.000175827
-7.42193e-06
-4.1429e-05
0.000182787
-7.22233e-06
-5.51703e-05
0.000187022
-7.09262e-06
-6.95758e-05
0.000192269
-7.15111e-06
-8.52266e-05
0.000199939
-7.51734e-06
-0.00010292
0.000210788
-8.37388e-06
-0.00012369
0.00022544
-1.00023e-05
-0.000148832
0.000244484
-1.28587e-05
-0.000179885
0.000268426
-1.77031e-05
-0.000218491
0.000297508
-2.57953e-05
-0.000266015
0.000331341
-3.90752e-05
-0.000322655
0.00036765
-5.99495e-05
-0.000385588
0.000398975
-8.98158e-05
-0.000444826
0.000405272
-0.000125581
-0.000471871
0.000342374
-0.000156917
-0.00041267
0.000163719
-0.000171671
-0.000224311
-7.41163e-05
-0.000176584
-0.000127274
-0.000156245
-4.18936e-06
0.000105179
-6.58448e-06
-1.44843e-05
0.000174335
-8.22168e-06
-2.63443e-05
0.000196116
-8.42848e-06
-3.83094e-05
0.000202864
-8.11258e-06
-5.00596e-05
0.000206604
-7.83226e-06
-6.19081e-05
0.000211855
-7.73713e-06
-7.44537e-05
0.000220453
-7.96818e-06
-8.85187e-05
0.000233581
-8.72804e-06
-0.000105213
0.000252458
-1.0324e-05
-0.000126042
0.000278564
-1.32504e-05
-0.000153041
0.000313751
-1.8327e-05
-0.000188931
0.000360212
-2.6814e-05
-0.00023756
0.000420049
-4.00789e-05
-0.000304143
0.000492227
-5.7994e-05
-0.000394033
0.000563711
-7.48469e-05
-0.00050569
0.000591933
-7.50034e-05
-0.000608769
0.000491307
-4.58539e-05
-0.000610959
0.000171037
-5.12708e-06
-0.000383957
-0.000259449
-4.16689e-05
-0.000363816
-0.000147416
-4.23334e-06
0.000116971
-7.55932e-06
-1.44375e-05
0.000194114
-9.575e-06
-2.54541e-05
0.000216895
-9.76284e-06
-3.56848e-05
0.000222353
-9.25756e-06
-4.47996e-05
0.00022444
-8.72026e-06
-5.31034e-05
0.000228508
-8.34884e-06
-6.11141e-05
0.00023677
-8.30629e-06
-6.94846e-05
0.000250751
-8.80041e-06
-7.90889e-05
0.00027219
-1.01275e-05
-9.11582e-05
0.000303357
-1.27235e-05
-0.000107531
0.000347349
-1.72256e-05
-0.000131244
0.000407956
-2.40306e-05
-0.000168188
0.000488829
-3.1836e-05
-0.000230448
0.000586817
-3.23294e-05
-0.000339947
0.000679635
-6.42479e-06
-0.000520943
0.000693439
7.94902e-05
-0.00074965
0.000498185
0.000221829
-0.000830505
-5.81988e-05
0.00031009
-0.000532715
-0.000761308
0.000204069
-0.000865286
-3.12441e-05
-5.17726e-06
0.000131121
-8.97254e-06
-1.60311e-05
0.000216343
-1.13752e-05
-2.64156e-05
0.000238713
-1.14332e-05
-3.46696e-05
0.000241215
-1.06085e-05
-4.0548e-05
0.00024002
-9.70199e-06
-4.43662e-05
0.000241279
-8.95346e-06
-4.64971e-05
0.000247424
-8.523e-06
-4.7203e-05
0.000260045
-8.58783e-06
-4.67414e-05
0.000281118
-9.38953e-06
-4.55088e-05
0.000313292
-1.11681e-05
-4.44169e-05
0.000360252
-1.39948e-05
-4.64457e-05
0.00042655
-1.6566e-05
-6.07829e-05
0.000516087
-1.29201e-05
-0.000111801
0.000621867
1.59676e-05
-0.000253161
0.000713956
0.000107039
-0.000547646
0.000689364
0.00029856
-0.000943084
0.000350866
0.000542756
-0.00104003
-0.000582633
0.000621382
-0.000668898
-0.00151436
0.000381921
-0.00159335
5.91666e-05
-8.11243e-06
0.000150653
-1.14196e-05
-2.09294e-05
0.000243668
-1.45078e-05
-3.09379e-05
0.000263261
-1.45393e-05
-3.67931e-05
0.000260345
-1.32744e-05
-3.88073e-05
0.000253749
-1.17145e-05
-3.74433e-05
0.000250178
-1.02625e-05
-3.28123e-05
0.000251944
-9.15168e-06
-2.46728e-05
0.000260482
-8.57682e-06
-1.24105e-05
0.000277529
-8.67295e-06
4.79273e-06
0.000305527
-9.43785e-06
2.66182e-05
0.00034856
-1.01328e-05
5.10124e-05
0.000409973
-7.81675e-06
6.53124e-05
0.000493722
8.06524e-06
2.77925e-05
0.000592415
6.69721e-05
-0.000149941
0.000676579
0.000215109
-0.00055834
0.0006171
0.000480664
-0.0010525
8.94835e-05
0.000755543
-0.00116269
-0.00117555
0.000703114
-0.000813725
-0.00219904
0.000335708
-0.00239895
-8.12292e-06
-1.35076e-05
0.000179181
-1.50204e-05
-2.98911e-05
0.000278055
-1.80039e-05
-4.02034e-05
0.000291143
-1.75696e-05
-4.4243e-05
0.000279852
-1.54678e-05
-4.24023e-05
0.000265136
-1.32283e-05
-3.54582e-05
0.000254393
-1.11589e-05
-2.35819e-05
0.000249558
-9.48963e-06
-6.16037e-06
0.000251432
-8.37106e-06
1.80407e-05
0.000261178
-7.8502e-06
5.08152e-05
0.000280497
-7.74479e-06
9.41498e-05
0.000312342
-7.11653e-06
0.000147169
0.000358732
-1.77929e-06
0.000196924
0.000422948
2.10192e-05
0.000199495
0.000497679
9.21653e-05
4.29581e-05
0.000567887
0.000265229
-0.000356647
0.000476869
0.000539836
-0.000860442
-0.000162823
0.000756101
-0.00108946
-0.00150973
0.000563193
-0.000878834
-0.00263245
0.000222793
-0.00313082
-0.000146969
-3.49794e-05
0.000237188
-2.30272e-05
-5.53663e-05
0.000326109
-2.76672e-05
-6.2514e-05
0.00032479
-2.65001e-05
-5.95541e-05
0.000300113
-2.32208e-05
-5.04509e-05
0.000275259
-1.92264e-05
-3.65943e-05
0.000255972
-1.5436e-05
-1.77504e-05
0.000243013
-1.22994e-05
7.65064e-06
0.000236066
-1.00353e-05
4.15773e-05
0.000235929
-8.67825e-06
8.75277e-05
0.000242702
-8.15483e-06
0.000148517
0.000258673
-7.32073e-06
0.000226328
0.00028341
-2.48849e-06
0.000312036
0.000319054
1.8186e-05
0.000376578
0.000354441
7.86956e-05
0.000329241
0.000387007
0.000228216
5.98554e-05
0.0002913
0.000454955
-0.00040081
-0.000297243
0.000595086
-0.000817614
-0.00150975
0.000416826
-0.000810352
-0.00280208
0.000162366
-0.00364899
-0.000292184
-2.99416e-05
0.000305759
-3.86297e-05
-6.81596e-05
0.000403423
-3.90961e-05
-8.32349e-05
0.000375443
-3.55775e-05
-8.36663e-05
0.000328781
-2.82367e-05
-7.15674e-05
0.000285745
-2.2585e-05
-5.06027e-05
0.000252481
-1.74742e-05
-2.24748e-05
0.000228285
-1.33992e-05
1.33254e-05
0.000210806
-1.05404e-05
5.82709e-05
0.000200112
-9.1285e-06
0.000116141
0.000194048
-9.21648e-06
0.000190266
0.000194653
-1.0105e-05
0.000284588
0.000198178
-9.09056e-06
0.000392493
0.000207651
3.49804e-06
0.000500003
0.000207084
3.98468e-05
0.000550054
0.000200034
0.000136923
0.000439319
0.000108216
0.000293819
6.43562e-05
-0.000308984
0.000386704
-0.000468742
-0.0013004
0.000323748
-0.000664886
-0.00270823
0.000102291
-0.00388784
-0.000426036
-0.000181078
0.000534505
-4.76675e-05
-0.000177357
0.000460521
-6.0819e-05
-0.000146481
0.000404878
-6.0311e-05
-0.000110849
0.000345835
-5.26857e-05
-6.60036e-05
0.00028154
-4.06392e-05
-1.69428e-05
0.000232994
-2.95732e-05
3.48213e-05
0.000197772
-2.12513e-05
9.0857e-05
0.000170429
-1.56582e-05
0.000152443
0.000151581
-1.30548e-05
0.000224186
0.0001361
-1.37949e-05
0.000307244
0.000128212
-1.66159e-05
0.000406629
0.000119225
-2.04318e-05
0.000515439
0.000117552
-1.87122e-05
0.000623139
0.000101952
-2.5673e-06
0.000702601
7.70808e-05
4.34902e-05
0.000687167
-1.96734e-05
0.000143324
0.000476712
-0.00029009
0.000191561
-2.51509e-05
-0.00102237
0.000223833
-0.000377477
-0.00239768
4.17735e-05
-0.00370581
-0.0005595
-0.000371296
0.00107727
-0.000171472
-0.000261581
0.000480064
-0.000129258
-0.000104977
0.000349468
-0.000101195
6.75385e-05
0.000247581
-7.42618e-05
0.000232271
0.000174091
-5.72844e-05
0.000383785
0.000125342
-4.38623e-05
0.000520449
9.51672e-05
-3.40592e-05
0.000645017
7.33952e-05
-2.75345e-05
0.000760097
6.02686e-05
-2.37678e-05
0.000870814
4.87032e-05
-2.332e-05
0.000980636
4.40187e-05
-2.56293e-05
0.00109454
3.67865e-05
-3.14689e-05
0.00121456
3.42793e-05
-3.67382e-05
0.00133144
2.1071e-05
-3.60043e-05
0.00143495
-1.41463e-06
-2.50164e-05
0.00147706
-7.91588e-05
1.73823e-05
0.00139114
-0.000268541
6.4368e-05
0.00099205
-0.000725903
0.000102618
0.000275373
-0.00167832
-2.68304e-06
-0.0027407
-0.000689738
0.00122658
-0.000149307
0.00186763
-0.000160987
0.00237786
-0.000160758
0.00277217
-0.000146736
0.00307567
-0.000129401
0.00331585
-0.000114838
0.00351199
-0.000100981
0.0036761
-9.07105e-05
0.00381676
-8.03864e-05
0.00394024
-7.47822e-05
0.00405214
-6.78754e-05
0.00415577
-6.68488e-05
0.00425193
-6.18778e-05
0.00433587
-6.28679e-05
0.00438628
-5.18332e-05
0.00435798
-5.08528e-05
0.00411827
-2.88298e-05
0.00345174
-5.93756e-05
0.00189504
-0.000121615
-0.000845664
-4.96764e-06
5.77568e-06
-1.58022e-06
-1.56483e-05
1.18105e-05
-1.5183e-06
-2.8409e-05
1.39256e-05
-1.34004e-06
-4.18361e-05
1.45953e-05
-1.23237e-06
-5.54405e-05
1.48176e-05
-1.28297e-06
-6.90359e-05
1.49111e-05
-1.47665e-06
-8.24353e-05
1.48827e-05
-1.81469e-06
-9.53356e-05
1.46298e-05
-2.32338e-06
-0.000107272
1.4007e-05
-3.04227e-06
-0.000117591
1.28421e-05
-4.01595e-06
-0.000125438
1.09464e-05
-5.28613e-06
-0.000129774
8.14008e-06
-6.87813e-06
-0.000129449
4.29735e-06
-8.78105e-06
-0.000123344
-5.88064e-07
-1.09248e-05
-0.000110629
-6.30567e-06
-1.3132e-05
-9.11701e-05
-1.22656e-05
-1.5125e-05
-6.60506e-05
-1.73778e-05
-1.65089e-05
-3.81493e-05
-1.99537e-05
-1.68285e-05
-1.27402e-05
-1.78225e-05
-1.55902e-05
-7.24738e-06
-1.01051e-05
-1.12533e-05
1.82161e-05
-3.27436e-06
-3.13906e-05
3.37699e-05
-3.80626e-06
-5.48309e-05
3.9263e-05
-3.74514e-06
-7.92754e-05
4.09309e-05
-3.604e-06
-0.000103795
4.12674e-05
-3.61285e-06
-0.000127909
4.10733e-05
-3.79019e-06
-0.000151161
4.04046e-05
-4.15519e-06
-0.000172959
3.90427e-05
-4.75327e-06
-0.000192493
3.66552e-05
-5.64566e-06
-0.000208697
3.28423e-05
-6.90063e-06
-0.000220241
2.71713e-05
-8.58248e-06
-0.000225545
1.92221e-05
-1.07315e-05
-0.000222957
8.77212e-06
-1.33342e-05
-0.000210948
-4.09862e-06
-1.63267e-05
-0.000188334
-1.89937e-05
-1.94205e-05
-0.000155076
-3.43131e-05
-2.22199e-05
-0.000112926
-4.74e-05
-2.41397e-05
-6.63738e-05
-5.40768e-05
-2.44829e-05
-2.35965e-05
-4.89305e-05
-2.2356e-05
-2.28842e-05
-1.35953e-05
-1.39052e-05
3.35808e-05
-4.28178e-06
-3.81909e-05
6.03348e-05
-5.1893e-06
-6.61987e-05
6.96559e-05
-5.21114e-06
-9.52199e-05
7.23209e-05
-5.04134e-06
-0.000124182
7.26232e-05
-4.99878e-06
-0.000152529
7.19266e-05
-5.12555e-06
-0.000179748
7.03593e-05
-5.45587e-06
-0.000205187
6.75972e-05
-6.05225e-06
-0.000227969
6.3121e-05
-6.99746e-06
-0.000246939
5.62902e-05
-8.38737e-06
-0.000260628
4.63984e-05
-1.03181e-05
-0.000267292
3.27699e-05
-1.28665e-05
-0.000264958
1.49502e-05
-1.60642e-05
-0.000251591
-7.11494e-06
-1.98199e-05
-0.000225611
-3.27202e-05
-2.38267e-05
-0.000186593
-5.93177e-05
-2.75699e-05
-0.000136288
-8.23957e-05
-3.02254e-05
-8.00522e-05
-9.45693e-05
-3.07575e-05
-2.81688e-05
-8.6144e-05
-2.78982e-05
-4.13399e-05
-1.64431e-05
-1.48572e-05
5.01561e-05
-5.08612e-06
-4.08565e-05
8.90243e-05
-6.31747e-06
-7.07728e-05
0.000102397
-6.41776e-06
-0.000101736
0.000106088
-6.23661e-06
-0.000132674
0.00010638
-6.16565e-06
-0.000163078
0.00010526
-6.26835e-06
-0.0001925
0.000102954
-6.59569e-06
-0.00022036
9.90489e-05
-7.23121e-06
-0.000245851
9.28495e-05
-8.28657e-06
-0.000267845
8.34583e-05
-9.8983e-06
-0.000284823
6.98354e-05
-1.22166e-05
-0.000294823
5.09142e-05
-1.53813e-05
-0.000295466
2.58437e-05
-1.94867e-05
-0.000284129
-5.68422e-06
-2.45385e-05
-0.000258149
-4.32443e-05
-3.01733e-05
-0.000216064
-8.33234e-05
-3.56848e-05
-0.000159047
-0.000119293
-3.98425e-05
-9.32498e-05
-0.000139508
-4.09254e-05
-3.18949e-05
-0.000128208
-3.69623e-05
-6.09161e-05
-2.11622e-05
-1.50873e-05
6.72237e-05
-5.75846e-06
-4.17972e-05
0.000118837
-7.29238e-06
-7.26089e-05
0.00013648
-7.47002e-06
-0.000104587
0.000141317
-7.29456e-06
-0.000136716
0.000141775
-7.22619e-06
-0.000168603
0.000140531
-7.35108e-06
-0.000199945
0.000137952
-7.74056e-06
-0.000230326
0.000133569
-8.50581e-06
-0.0002591
0.000126529
-9.79878e-06
-0.000285262
0.000115669
-1.18155e-05
-0.000307304
9.95462e-05
-1.47926e-05
-0.000323056
7.65325e-05
-1.89837e-05
-0.000329554
4.50743e-05
-2.46151e-05
-0.00032329
4.34675e-06
-3.17842e-05
-0.000299943
-4.62697e-05
-4.02129e-05
-0.000256143
-0.000102652
-4.89327e-05
-0.00019153
-0.000155966
-5.6041e-05
-0.000112678
-0.000189006
-5.84854e-05
-3.732e-05
-0.00017669
-5.26577e-05
-8.19493e-05
-2.89605e-05
-1.50467e-05
8.45262e-05
-6.38453e-06
-4.20948e-05
0.000149423
-8.22362e-06
-7.34489e-05
0.000171575
-8.48229e-06
-0.000106134
0.000177726
-8.32487e-06
-0.000139216
0.000178601
-8.28097e-06
-0.00017246
0.000177656
-8.46243e-06
-0.00020577
0.000175458
-8.9658e-06
-0.000238981
0.000171547
-9.93792e-06
-0.000271716
0.000164957
-1.15849e-05
-0.000303226
0.000154286
-1.41866e-05
-0.000332162
0.000137658
-1.81079e-05
-0.000356278
0.000112737
-2.37913e-05
-0.000372103
7.69281e-05
-3.16957e-05
-0.000374666
2.8014e-05
-4.21385e-05
-0.000358013
-3.54742e-05
-5.52466e-05
-0.000315291
-0.000111171
-6.97424e-05
-0.000242723
-0.000188253
-8.25946e-05
-0.000145417
-0.000243294
-8.82116e-05
-4.73289e-05
-0.000235969
-7.931e-05
-0.00010734
-4.13422e-05
-1.48908e-05
0.000101977
-7.03948e-06
-4.21289e-05
0.000180678
-9.20962e-06
-7.38678e-05
0.000207572
-9.55304e-06
-0.000107084
0.000215187
-9.41299e-06
-0.000140934
0.000216717
-9.39438e-06
-0.00017537
0.000216511
-9.6391e-06
-0.000210563
0.00021543
-1.02743e-05
-0.000246687
0.000213113
-1.1491e-05
-0.000283776
0.000208593
-1.35652e-05
-0.000321534
0.000200324
-1.68914e-05
-0.000359035
0.000186056
-2.20227e-05
-0.000394277
0.000162709
-2.9701e-05
-0.00042358
0.000126383
-4.08167e-05
-0.000440848
7.2847e-05
-5.62785e-05
-0.000438316
-5.97803e-07
-7.68291e-05
-0.000403902
-9.72615e-05
-0.000101073
-0.000327215
-0.000206447
-0.000124371
-0.000206042
-0.000301518
-0.000136395
-6.95773e-05
-0.000317211
-0.000122714
-0.000147833
-6.09332e-05
-1.46612e-05
0.000119549
-7.7783e-06
-4.2004e-05
0.000212587
-1.03244e-05
-7.39871e-05
0.000244403
-1.07507e-05
-0.000107505
0.000253531
-1.06091e-05
-0.000141797
0.000255849
-1.05901e-05
-0.000177021
0.000256729
-1.08703e-05
-0.000213657
0.000257447
-1.16118e-05
-0.000252309
0.000257886
-1.30565e-05
-0.000293579
0.00025725
-1.55639e-05
-0.000337886
0.000254069
-1.96731e-05
-0.000385147
0.000245964
-2.61919e-05
-0.000434233
0.000229338
-3.63011e-05
-0.000482174
0.000199132
-5.16117e-05
-0.000523036
0.000148893
-7.40056e-05
-0.000546354
7.16837e-05
-0.000104842
-0.000537494
-4.01424e-05
-0.000143796
-0.00047185
-0.000192882
-0.000181597
-0.000326614
-0.000365903
-0.000200604
-0.000124358
-0.000453603
-0.000179939
-0.000237841
-9.11522e-05
-1.43948e-05
0.000137277
-8.653e-06
-4.17936e-05
0.000245208
-1.16384e-05
-7.38548e-05
0.000282001
-1.21374e-05
-0.000107334
0.000292505
-1.19536e-05
-0.000141533
0.000295522
-1.18783e-05
-0.000176811
0.000297606
-1.21266e-05
-0.000213975
0.000300585
-1.28971e-05
-0.000254108
0.000304756
-1.4483e-05
-0.000298509
0.000309754
-1.73304e-05
-0.000348592
0.000314548
-2.21388e-05
-0.000405636
0.000317134
-3.0017e-05
-0.000470299
0.000314065
-4.27018e-05
-0.000541875
0.000299991
-6.27401e-05
-0.000617125
0.000266974
-9.31883e-05
-0.000687528
0.000202522
-0.000135824
-0.000734192
8.34873e-05
-0.000185755
-0.000713484
-0.000134388
-0.000224876
-0.000556454
-0.000465357
-0.000231367
-0.000248253
-0.000726237
-0.000206638
-0.000459672
-0.000128644
-1.41835e-05
0.000155318
-9.73085e-06
-4.16765e-05
0.000278727
-1.32411e-05
-7.36486e-05
0.000320343
-1.37919e-05
-0.000106646
0.00033178
-1.35012e-05
-0.000139995
0.000335059
-1.32801e-05
-0.000174235
0.00033808
-1.33857e-05
-0.000210469
0.000343352
-1.40505e-05
-0.000250244
0.000351767
-1.56094e-05
-0.00029558
0.000363665
-1.85774e-05
-0.000349032
0.000378928
-2.37859e-05
-0.000413701
0.000396705
-3.26059e-05
-0.000493136
0.000414952
-4.72465e-05
-0.000591109
0.000429692
-7.08039e-05
-0.000710717
0.000432394
-0.000105762
-0.000850016
0.00040006
-0.000148054
-0.000987563
0.00027164
-0.000176187
-0.00105146
-7.12373e-05
-0.000156171
-0.000898495
-0.000683925
-0.000106067
-0.000455379
-0.00122781
-0.000118123
-0.00092534
-0.000145955
-1.42237e-05
0.000174073
-1.11157e-05
-4.20372e-05
0.000313581
-1.52619e-05
-7.38173e-05
0.000359522
-1.58275e-05
-0.000105827
0.000371014
-1.53363e-05
-0.000137384
0.000373628
-1.48446e-05
-0.000169161
0.000376773
-1.46539e-05
-0.000202475
0.000383719
-1.50213e-05
-0.0002392
0.000396064
-1.62994e-05
-0.000281924
0.000415087
-1.90218e-05
-0.000334216
0.000442017
-2.40485e-05
-0.000401021
0.000477963
-3.27795e-05
-0.000489171
0.000523522
-4.72349e-05
-0.000608137
0.000577407
-6.88279e-05
-0.000769804
0.000628708
-9.26416e-05
-0.000979451
0.000629779
-9.49191e-05
-0.00121048
0.000454984
-2.73227e-05
-0.00135641
-9.57999e-05
0.000124644
-0.00120626
-0.00105957
0.000220367
-0.000668129
-0.00188175
7.41361e-05
-0.00165057
-9.03134e-05
-1.49066e-05
0.000194407
-1.29872e-05
-4.36124e-05
0.000350651
-1.79386e-05
-7.52343e-05
0.000399867
-1.84857e-05
-0.000105723
0.000409919
-1.76742e-05
-0.00013442
0.000410345
-1.67406e-05
-0.000162093
0.000412147
-1.60485e-05
-0.000190131
0.000419327
-1.58756e-05
-0.000220482
0.000434173
-1.65598e-05
-0.000255894
0.000458946
-1.85737e-05
-0.000300357
0.000496365
-2.26079e-05
-0.000359817
0.000549763
-2.95657e-05
-0.00044298
0.000622401
-3.97463e-05
-0.000562734
0.000713959
-4.86337e-05
-0.000736081
0.000804726
-3.50002e-05
-0.000976695
0.000813315
5.0653e-05
-0.0012618
0.000553636
0.000265944
-0.00147497
-0.000203211
0.000542414
-0.00133909
-0.00146903
0.000583674
-0.000775173
-0.0024812
0.000239594
-0.00247536
1.83664e-05
-1.6797e-05
0.000217832
-1.55998e-05
-4.7447e-05
0.000391392
-2.14667e-05
-7.92329e-05
0.000442066
-2.1846e-05
-0.000107818
0.000448422
-2.05268e-05
-0.000132598
0.000444398
-1.89742e-05
-0.000154435
0.00044263
-1.75997e-05
-0.000174666
0.000447705
-1.66697e-05
-0.000194966
0.000462343
-1.64577e-05
-0.000217586
0.000489463
-1.72868e-05
-0.000245876
0.000532925
-1.94378e-05
-0.000285141
0.000597735
-2.27027e-05
-0.00034367
0.000688496
-2.4132e-05
-0.000435541
0.000804306
-1.13964e-05
-0.000583164
0.000913816
5.44995e-05
-0.000819066
0.000914822
0.000241434
-0.00113756
0.000586174
0.00058452
-0.00140859
-0.000293616
0.000904187
-0.00129829
-0.00173017
0.000772228
-0.000778863
-0.00286963
0.000250924
-0.00322806
3.30068e-05
-2.1676e-05
0.000247742
-1.96542e-05
-5.62509e-05
0.000438445
-2.69859e-05
-8.83203e-05
0.000486857
-2.72613e-05
-0.000113957
0.000486025
-2.52411e-05
-0.000133478
0.0004749
-2.26956e-05
-0.000147998
0.000467103
-2.02162e-05
-0.00015849
0.000467184
-1.81382e-05
-0.000165917
0.000477906
-1.67133e-05
-0.000171515
0.000502458
-1.60685e-05
-0.000177086
0.000545033
-1.59761e-05
-0.000186003
0.00061145
-1.49305e-05
-0.000204031
0.000705828
-7.11976e-06
-0.000245992
0.000827567
2.6765e-05
-0.000339771
0.000938307
0.000136261
-0.000542927
0.000941824
0.000391263
-0.00086195
0.000601251
0.00078461
-0.00114119
-0.000302952
0.00104412
-0.00108814
-0.0017852
0.000705097
-0.000706755
-0.00307077
0.000155462
-0.00385823
-8.47105e-05
-2.81054e-05
0.000286139
-2.53119e-05
-6.86377e-05
0.000494602
-3.36283e-05
-0.000103042
0.000537061
-3.33687e-05
-0.000127624
0.000525318
-3.01784e-05
-0.000142137
0.000502705
-2.65202e-05
-0.000148252
0.000484986
-2.29272e-05
-0.000147184
0.000476372
-1.9746e-05
-0.000139444
0.000478963
-1.71677e-05
-0.000125025
0.000495385
-1.5196e-05
-0.00010359
0.000529069
-1.32152e-05
-7.57316e-05
0.000585591
-9.11521e-06
-4.32654e-05
0.000667206
4.37628e-06
-1.7773e-05
0.000774725
4.83691e-05
-2.99828e-05
0.000872234
0.000170448
-0.000140882
0.000884717
0.000433235
-0.00037776
0.000585329
0.000792636
-0.000613534
-0.000253961
0.000942885
-0.000712684
-0.00164167
0.000518806
-0.000537544
-0.00309877
7.56454e-05
-0.00433068
-0.000212057
-6.16792e-05
0.000360323
-3.55318e-05
-0.000108991
0.000560938
-4.6691e-05
-0.000137555
0.000584893
-4.57677e-05
-0.000150898
0.000556674
-4.12341e-05
-0.00015447
0.000522572
-3.5522e-05
-0.000150192
0.000495029
-2.97562e-05
-0.000138008
0.000476441
-2.45521e-05
-0.000116545
0.000467693
-2.02288e-05
-8.39085e-05
0.000470876
-1.68053e-05
-3.73124e-05
0.000487911
-1.35932e-05
2.59332e-05
0.000523556
-8.53145e-06
0.000106464
0.000579217
4.96935e-06
0.000200892
0.000653987
4.4496e-05
0.000289921
0.000718487
0.000143413
0.000322503
0.000725302
0.000355049
0.000222353
0.000505502
0.000634933
4.00369e-05
-0.000181417
0.000704858
-0.00024485
-0.00131781
0.000377857
-0.000278472
-0.00293452
3.17457e-05
-0.00459715
-0.000304189
-4.24011e-05
0.000417933
-5.38392e-05
-0.000120425
0.000665005
-6.51391e-05
-0.000168242
0.000658228
-6.10967e-05
-0.00018903
0.000601233
-5.20079e-05
-0.000190271
0.000545075
-4.38462e-05
-0.000176967
0.000500234
-3.59835e-05
-0.000151456
0.000466622
-2.90917e-05
-0.000113325
0.000442498
-2.34762e-05
-6.10361e-05
0.000428859
-1.94009e-05
9.58407e-06
0.000424435
-1.63612e-05
0.000101437
0.0004342
-1.26019e-05
0.000220659
0.000455406
-4.50114e-06
0.000365697
0.000490892
2.15557e-05
0.000525528
0.000515075
8.34286e-05
0.000665394
0.000507608
0.00021475
0.000695982
0.000364693
0.00040404
0.000555404
-0.000103447
0.000449313
0.000218591
-0.000932341
0.00027509
5.2832e-05
-0.00267502
8.54112e-06
-0.00459721
-0.00037314
-0.000190527
0.000622403
-6.16104e-05
-0.000216445
0.000714925
-8.48207e-05
-0.000231708
0.000700529
-8.73488e-05
-0.000238577
0.000634184
-7.87676e-05
-0.000220315
0.000551741
-6.55684e-05
-0.000182911
0.000485572
-5.23151e-05
-0.000130612
0.000434204
-4.1132e-05
-6.33635e-05
0.000392219
-3.2628e-05
1.7648e-05
0.000362121
-2.73284e-05
0.000115008
0.000337913
-2.46328e-05
0.000230564
0.000326366
-2.43383e-05
0.000369993
0.000318779
-2.32339e-05
0.000531157
0.000324946
-1.39314e-05
0.000703576
0.000324226
1.58628e-05
0.000876234
0.000302966
7.54751e-05
0.000979641
0.000214411
0.000190198
0.000982898
-0.000118013
0.00020287
0.000805151
-0.000683408
0.000152647
0.000508158
-0.00232966
-6.59278e-06
-0.00422373
-0.000424822
-0.000666434
0.00128489
-0.000167528
-0.000624875
0.000704592
-0.000160484
-0.000480819
0.000589831
-0.000134552
-0.00028097
0.000472218
-0.000112145
-7.22067e-05
0.000380868
-9.51747e-05
0.000135124
0.000314199
-7.98199e-05
0.000334897
0.000267915
-6.75424e-05
0.000526617
0.000231012
-5.80483e-05
0.000711351
0.000205137
-5.15167e-05
0.0008915
0.000182601
-4.81574e-05
0.00107153
0.000168792
-4.80854e-05
0.00125283
0.000156143
-5.01344e-05
0.00144646
0.000148131
-5.35495e-05
0.00164332
0.000137792
-4.64308e-05
0.00185079
0.000105198
-3.47192e-05
0.00202624
4.84533e-05
7.8864e-06
0.00209467
-0.00016332
4.12449e-05
0.0020363
-0.000554766
3.23467e-05
0.00138766
-0.00165409
-2.96035e-05
-0.00305038
-0.000475431
0.00126943
-0.000133845
0.00196932
-0.000156289
0.00255996
-0.00016156
0.00304099
-0.000155554
0.00343783
-0.00014537
0.00377181
-0.000134617
0.00406217
-0.00012343
0.00431701
-0.000114538
0.00454662
-0.000104854
0.00475404
-9.96043e-05
0.00494666
-9.1697e-05
0.00512741
-9.14561e-05
0.00529788
-8.42203e-05
0.00546138
-8.85741e-05
0.0055904
-7.56602e-05
0.00567168
-8.36741e-05
0.00554132
-6.17929e-05
0.00502966
-0.000102479
0.00336904
-0.000115087
-0.000527008
-5.64454e-06
6.08001e-06
-2.01569e-06
-1.79713e-05
1.3253e-05
-2.4446e-06
-3.27066e-05
1.5825e-05
-2.42969e-06
-4.81089e-05
1.65738e-05
-2.40383e-06
-6.35956e-05
1.67191e-05
-2.51538e-06
-7.89578e-05
1.66699e-05
-2.78435e-06
-9.39869e-05
1.64447e-05
-3.23029e-06
-0.000108348
1.59273e-05
-3.88944e-06
-0.000121532
1.49507e-05
-4.80864e-06