/*--------------------------------*- C++ -*----------------------------------*\
  =========                 |
  \\      /  F ield         | OpenFOAM: The Open Source CFD Toolbox
   \\    /   O peration     | Website:  https://openfoam.org
    \\  /    A nd           | Version:  10
     \\/     M anipulation  |
\*---------------------------------------------------------------------------*/
FoamFile
{
    format      ascii;
    class       volScalarField;
    location    "8.85";
    object      p;
}
// * * * * * * * * * * * * * * * * * * * * * * * * * * * * * * * * * * * * * //

dimensions      [0 2 -2 0 0 0 0];

internalField   nonuniform List<scalar> 
8000
(
-3.27159e-06
-1.01935e-05
4.34547e-05
0.00014185
0.000291966
0.000496427
0.00075846
0.00108146
0.00146805
0.00191904
0.00243203
0.00299951
0.00360686
0.00423044
0.00483688
0.00538483
0.00582938
0.00613393
0.00629904
0.00627752
-1.68992e-06
-7.20492e-06
4.9783e-05
0.000148665
0.000297538
0.000499367
0.000757651
0.00107598
0.00145721
0.0019025
0.00240996
0.00297286
0.00357724
0.00419955
0.00480667
0.00535826
0.00580615
0.00611107
0.00627612
0.00623764
-8.1972e-05
-9.12525e-05
-3.63773e-05
5.81034e-05
0.000200881
0.000395066
0.000644599
0.000953798
0.00132661
0.00176569
0.00227104
0.00283805
0.00345503
0.00410057
0.0047402
0.00532842
0.00580858
0.00613065
0.00629881
0.00623248
-0.000230942
-0.000243115
-0.000192201
-0.000104974
2.78282e-05
0.000209558
0.000444789
0.000738879
0.00109737
0.00152525
0.00202563
0.00259766
0.00323344
0.00391399
0.00460442
0.00525092
0.00578833
0.00614409
0.00632173
0.00621025
-0.00045652
-0.000471642
-0.000427036
-0.000350435
-0.000232095
-6.84127e-05
0.000145849
0.0004172
0.000753051
0.00116129
0.00164918
0.00222118
0.00287548
0.0035984
0.00435703
0.00509104
0.00571871
0.00613252
0.00633106
0.00614855
-0.000758665
-0.000777039
-0.000741069
-0.000678713
-0.000579963
-0.00044116
-0.000256638
-1.89761e-05
0.000280918
0.00065381
0.0011116
0.00166564
0.00232284
0.00307953
0.00391115
0.00475831
0.00551363
0.00602558
0.00627288
0.00598357
-0.00113462
-0.00115673
-0.00113169
-0.00108744
-0.00101406
-0.00090827
-0.00076463
-0.000575618
-0.000331348
-1.91217e-05
0.00037684
0.000874937
0.00149375
0.00224505
0.00312215
0.00407856
0.00499839
0.00567031
0.00603517
0.00562243
-0.00157977
-0.00160615
-0.00159413
-0.00157179
-0.00152981
-0.001466
-0.0013762
-0.00125427
-0.00109164
-0.000876279
-0.000591589
-0.000215679
0.000278753
0.000921862
0.00173586
0.00271748
0.00379864
0.00474118
0.00538529
0.00495612
-0.00208797
-0.00211903
-0.00212145
-0.00212403
-0.00211876
-0.00210555
-0.00208294
-0.00204824
-0.00199724
-0.0019233
-0.00181619
-0.00166007
-0.00143111
-0.00109431
-0.000601808
0.000114822
0.00115085
0.00247576
0.00379566
0.00384987
-0.00265207
-0.00268784
-0.00270468
-0.00273336
-0.00276792
-0.00281156
-0.00286726
-0.00293824
-0.00302852
-0.00314298
-0.00328747
-0.00346893
-0.0036941
-0.00395809
-0.00421469
-0.00428746
-0.00363913
-0.00183019
0.000799008
0.00215024
-0.00326492
-0.00330476
-0.00333356
-0.00338639
-0.00345973
-0.00356168
-0.00370102
-0.00388922
-0.00414223
-0.00448279
-0.00494363
-0.0055725
-0.00643557
-0.00758392
-0.00897702
-0.0102473
-0.0101474
-0.00727345
-0.00275485
-0.000154818
-0.00392101
-0.00396308
-0.00399729
-0.00406726
-0.00417221
-0.0043265
-0.00454537
-0.00484952
-0.00526879
-0.00584697
-0.0066486
-0.00777221
-0.00934433
-0.0114278
-0.0139215
-0.015936
-0.0155975
-0.0109324
-0.00542865
-0.00183096
-0.00462128
-0.00466151
-0.00468944
-0.00476313
-0.00488458
-0.00507563
-0.0053575
-0.00575906
-0.0063228
-0.0071106
-0.00820434
-0.00975844
-0.0119074
-0.0146639
-0.0177444
-0.0198854
-0.0192478
-0.0137504
-0.00854829
-0.0029779
-0.00537384
-0.00539917
-0.00539764
-0.00545051
-0.00556496
-0.00576912
-0.00608658
-0.00655004
-0.00721369
-0.00814416
-0.00944941
-0.0112794
-0.0137827
-0.0169206
-0.0203065
-0.0228772
-0.0235974
-0.0191143
-0.0136517
-0.00469272
-0.00620822
-0.00621347
-0.0061595
-0.00616702
-0.00624015
-0.00641727
-0.00672786
-0.00720099
-0.00790203
-0.00889132
-0.0102846
-0.012221
-0.014855
-0.0181373
-0.0218432
-0.0251468
-0.0281398
-0.0244569
-0.0184718
-0.00596197
-0.00730747
-0.00708197
-0.00688316
-0.00674883
-0.00673976
-0.00687299
-0.00716472
-0.00763346
-0.00833182
-0.00931182
-0.0106899
-0.0125708
-0.0151034
-0.0182332
-0.0218934
-0.0251066
-0.0284353
-0.0244139
-0.0189801
-0.00275042
-0.00818628
-0.00827045
-0.00791395
-0.00773736
-0.00758254
-0.00756725
-0.00771891
-0.00806132
-0.00865542
-0.00953073
-0.0107961
-0.0125123
-0.0148054
-0.0175154
-0.0207089
-0.0230381
-0.0254103
-0.0199265
-0.0145761
0.00852671
-0.0120803
-0.00922385
-0.00851824
-0.00773293
-0.00741593
-0.00735486
-0.00753213
-0.00789949
-0.00849792
-0.00933712
-0.0105254
-0.0120683
-0.0141027
-0.0163237
-0.0188432
-0.0200318
-0.0210543
-0.0131307
-0.00490611
0.0320276
-0.0116047
-0.0124817
-0.0109202
-0.0103243
-0.00949441
-0.00895415
-0.00868376
-0.00868449
-0.00900464
-0.00961793
-0.0106392
-0.012002
-0.0139399
-0.0159901
-0.0184364
-0.0189434
-0.0182943
-0.00562802
0.0119098
0.0754149
-0.0363624
-0.0109072
-0.00913358
-0.00755699
-0.00670851
-0.00651559
-0.00671887
-0.00709203
-0.00772912
-0.00853727
-0.00975868
-0.0111457
-0.0130208
-0.0144826
-0.0156547
-0.0127769
-0.00497898
0.022578
0.0695643
0.175656
1.83535e-06
-1.70235e-05
3.42486e-05
0.000131229
0.000281238
0.000486195
0.000749142
0.0010736
0.00146246
0.00191689
0.00243491
0.00300946
0.00362622
0.00426147
0.00488123
0.00544171
0.00589467
0.00619943
0.00635802
0.00631253
1.72047e-05
-5.16108e-07
5.65095e-05
0.000155171
0.000304274
0.000506321
0.000764723
0.00108313
0.00146454
0.0019103
0.00241889
0.00298405
0.00359222
0.00421949
0.00483561
0.00539498
0.00584786
0.0061516
0.0063121
0.00624996
-5.7577e-05
-8.18239e-05
-2.67317e-05
6.75939e-05
0.000210645
0.000405009
0.000654525
0.000963558
0.00133617
0.00177526
0.00228129
0.00285026
0.00347109
0.00412278
0.00477272
0.00537061
0.00585735
0.00617783
0.0063396
0.00624306
-0.00020262
-0.00023128
-0.00017997
-9.28053e-05
4.03734e-05
0.000222364
0.00045763
0.000751564
0.00110981
0.00153763
0.00203868
0.00261297
0.00325367
0.00394316
0.00464393
0.00530587
0.00585338
0.00620755
0.00637568
0.00622351
-0.000426305
-0.000458852
-0.000413808
-0.000337204
-0.000218321
-5.41232e-05
0.00016052
0.000432162
0.00076833
0.00117721
0.00166671
0.00224243
0.00290404
0.00363901
0.00441383
0.00517124
0.00581579
0.00622972
0.00641395
0.00617102
-0.000727772
-0.000764237
-0.000727856
-0.000665427
-0.000565909
-0.000426206
-0.000240738
-2.01892e-06
0.000299193
0.000674009
0.00113506
0.00169511
0.00236328
0.00313751
0.00398995
0.00487451
0.00566662
0.00619033
0.00642048
0.00602631
-0.00110367
-0.00114447
-0.0011191
-0.00107474
-0.00100039
-0.000893299
-0.000748074
-0.000557075
-0.00031024
5.5129e-06
0.000406775
0.000913558
0.00154744
0.00232471
0.00324378
0.00424686
0.00523958
0.0059706
0.00633299
0.00571816
-0.00154914
-0.00159493
-0.00158276
-0.00156036
-0.0015173
-0.00145189
-0.00135993
-0.00123513
-0.0010687
-0.000848232
-0.000556486
-0.000170291
0.000340415
0.00101125
0.00187268
0.00293213
0.00414325
0.0052893
0.00601829
0.00522511
-0.00205794
-0.00210934
-0.00211191
-0.00211467
-0.0021084
-0.00209346
-0.00206833
-0.00203012
-0.00197442
-0.00189447
-0.00178003
-0.00161565
-0.00137899
-0.00103742
-0.000535117
0.000261745
0.00160915
0.00357544
0.00515025
0.00466824
-0.00262274
-0.00268019
-0.00269764
-0.00272693
-0.00276081
-0.0028029
-0.00285602
-0.00292323
-0.00300853
-0.00311733
-0.0032574
-0.00344123
-0.00369108
-0.00403243
-0.00442762
-0.00456447
-0.00337332
-0.000220858
0.00279426
0.00401112
-0.00323613
-0.00329975
-0.00332978
-0.00338383
-0.0034571
-0.00355794
-0.00369499
-0.0038796
-0.00412811
-0.00446506
-0.00492879
-0.00558166
-0.00653081
-0.00791321
-0.00968602
-0.0113979
-0.0109231
-0.00673283
-0.00182479
0.0021268
-0.00389235
-0.00396081
-0.00399666
-0.00406847
-0.00417422
-0.00432812
-0.00454525
-0.00484626
-0.00526179
-0.00583913
-0.00665458
-0.00783065
-0.00956405
-0.0120927
-0.0153302
-0.0184557
-0.019008
-0.0138848
-0.00761273
-0.00109604
-0.00459142
-0.00466304
-0.0046938
-0.00477048
-0.0048936
-0.0050845
-0.00536457
-0.0057628
-0.00632225
-0.0071083
-0.00822726
-0.00984153
-0.0122035
-0.0155474
-0.0197815
-0.0238654
-0.0257092
-0.0204839
-0.0141966
-0.00544273
-0.00533532
-0.00539806
-0.00539785
-0.00545432
-0.00557237
-0.00577839
-0.00609562
-0.00655723
-0.00721483
-0.00814002
-0.00945811
-0.0113381
-0.0140619
-0.0178197
-0.022646
-0.0274882
-0.0312615
-0.0271045
-0.0216393
-0.0104889
-0.00615436
-0.00621834
-0.00616736
-0.00618266
-0.0062592
-0.00643659
-0.00674283
-0.00721352
-0.00790172
-0.00887405
-0.0102591
-0.0122215
-0.015036
-0.0188415
-0.0238417
-0.028984
-0.034373
-0.0308567
-0.026667
-0.0131442
-0.00719231
-0.00703141
-0.00684263
-0.00671975
-0.0067244
-0.00686713
-0.00716086
-0.00762704
-0.00831139
-0.00925902
-0.0106132
-0.0124846
-0.0151154
-0.0185637
-0.023072
-0.0274582
-0.0321142
-0.0284041
-0.026865
-0.00900911
-0.00789756
-0.00820442
-0.00785257
-0.00772849
-0.0075862
-0.00757748
-0.00772319
-0.00805656
-0.00862967
-0.00944764
-0.0106742
-0.0123482
-0.0146567
-0.0175135
-0.0211915
-0.0242233
-0.0274171
-0.0231478
-0.0220424
0.0053023
-0.0116093
-0.00892253
-0.00825255
-0.00750018
-0.00726172
-0.00726216
-0.00747011
-0.00784458
-0.00842543
-0.00921758
-0.010356
-0.0118444
-0.0138788
-0.0162179
-0.0191052
-0.0209053
-0.0223508
-0.016411
-0.00982465
0.0330228
-0.00897996
-0.0115474
-0.0103461
-0.0101066
-0.00944262
-0.00899923
-0.00876335
-0.00875183
-0.00903058
-0.00956846
-0.0105096
-0.0117852
-0.0137186
-0.0158793
-0.0187907
-0.0201356
-0.0201289
-0.00836788
0.0120495
0.0836687
-0.0341517
-0.00904708
-0.00752232
-0.00650538
-0.00601677
-0.00599309
-0.00630785
-0.00673028
-0.00739633
-0.00817542
-0.00937104
-0.0107272
-0.0126177
-0.0142443
-0.0156153
-0.0132507
-0.00522205
0.0246662
0.0833586
0.206108
1.99102e-05
-4.95009e-06
4.544e-05
0.000142217
0.000293166
0.000499969
0.000765774
0.00109443
0.00148929
0.00195207
0.00248138
0.00307066
0.00370574
0.00436238
0.00500446
0.00558499
0.00605073
0.00635647
0.0065058
0.00643805
4.46891e-05
1.98755e-05
7.72001e-05
0.000176034
0.000325988
0.000529425
0.000789935
0.0011115
0.00149754
0.00194999
0.00246796
0.00304582
0.00367026
0.00431791
0.00495501
0.00553402
0.0059996
0.00630403
0.00645538
0.00637055
-2.37331e-05
-5.6802e-05
-1.16825e-06
9.3329e-05
0.000237148
0.00043273
0.000684143
0.000996144
0.00137333
0.00181932
0.00233547
0.00291871
0.00355883
0.00423554
0.00491247
0.00553666
0.006041
0.00636223
0.00650989
0.0063809
-0.000163127
-0.000201724
-0.000149661
-6.22912e-05
7.16704e-05
0.000254887
0.000492108
0.000789201
0.00115247
0.00158813
0.0021011
0.00269279
0.00335753
0.0040779
0.00481896
0.00552031
0.00609605
0.00645232
0.00659566
0.00639202
-0.000382627
-0.000425889
-0.000379953
-0.000303076
-0.000183262
-1.75826e-05
0.000199452
0.000474979
0.000817366
0.00123604
0.00174068
0.0023392
0.00303363
0.00381252
0.00464537
0.00546404
0.00615705
0.00657804
0.00671719
0.0063842
-0.00068087
-0.00072867
-0.000691286
-0.000628472
-0.000527789
-0.000386193
-0.000197659
4.60083e-05
0.000355102
0.000742331
0.00122274
0.00181262
0.00252524
0.00336229
0.00430271
0.00528444
0.0061648
0.00671227
0.00685758
0.00629384
-0.00105401
-0.00110673
-0.00108028
-0.00103546
-0.000959737
-0.000850374
-0.000701431
-0.000504429
-0.000248058
8.27228e-05
0.000507595
0.00105137
0.00174255
0.00260447
0.003637
0.00480792
0.00596564
0.00676861
0.00696643
0.0060443
-0.0014969
-0.00155522
-0.00154198
-0.00151916
-0.00147472
-0.00140688
-0.00131087
-0.00117947
-0.00100255
-0.000765554
-0.000447838
-2.06972e-05
0.000554716
0.00132551
0.00233724
0.00361987
0.00512675
0.00644339
0.00684514
0.0056295
-0.002003
-0.00206765
-0.00206929
-0.0020719
-0.00206455
-0.00204749
-0.00201858
-0.00197405
-0.00190835
-0.00181301
-0.00167516
-0.00147559
-0.0011878
-0.000773578
-0.000155303
0.000855592
0.00254597
0.00477825
0.00591801
0.00520877
-0.00256468
-0.00263617
-0.00265297
-0.00268267
-0.00271621
-0.00275706
-0.00280749
-0.00286995
-0.00294788
-0.00304644
-0.00317411
-0.00334782
-0.00360784
-0.00401763
-0.00454788
-0.00471
-0.00333654
0.000253643
0.003249
0.00466255
-0.00317398
-0.00325255
-0.00328245
-0.00333779
-0.00341193
-0.00351301
-0.0036493
-0.00383198
-0.00407802
-0.00441451
-0.0048873
-0.0055793
-0.00665421
-0.00836135
-0.0107468
-0.0128448
-0.0122684
-0.00718162
-0.00194116
0.0023742
-0.00382364
-0.00390818
-0.00394439
-0.00401861
-0.00412693
-0.00428316
-0.00450211
-0.00480475
-0.00522374
-0.00581237
-0.00666248
-0.00793475
-0.00991911
-0.0129936
-0.0170967
-0.0209972
-0.0216758
-0.016017
-0.00944935
-0.00226051
-0.0045124
-0.00460245
-0.00463458
-0.00471526
-0.00484286
-0.00503815
-0.00532232
-0.00572503
-0.0062918
-0.00709655
-0.00826551
-0.0100138
-0.0126913
-0.0166869
-0.0219352
-0.0269348
-0.0293234
-0.024338
-0.0176597
-0.00835884
-0.00523694
-0.00531991
-0.00532113
-0.00538318
-0.0055085
-0.00572188
-0.006046
-0.00651427
-0.00717919
-0.00812318
-0.00948834
-0.0115015
-0.0145245
-0.0188634
-0.0246243
-0.0301703
-0.0342643
-0.0303627
-0.0242923
-0.0135978
-0.00602772
-0.00611817
-0.00606842
-0.00609278
-0.00617895
-0.00636568
-0.00667943
-0.00715588
-0.00784782
-0.0088322
-0.0102514
-0.0122998
-0.0153483
-0.0195141
-0.0251244
-0.0303657
-0.0351901
-0.0313313
-0.026864
-0.0148442
-0.00700734
-0.00687841
-0.00669103
-0.00657929
-0.00659865
-0.00675583
-0.00706068
-0.00753286
-0.00821617
-0.00916925
-0.0105237
-0.0124277
-0.0151741
-0.0188081
-0.023542
-0.0276473
-0.0311897
-0.0271299
-0.0250174
-0.00939006
-0.00758198
-0.00795038
-0.0076108
-0.00751894
-0.00739994
-0.00741187
-0.00757101
-0.00791076
-0.00847413
-0.00929827
-0.0104901
-0.012159
-0.0145073
-0.0174454
-0.0211988
-0.0239865
-0.0262146
-0.0216996
-0.0187295
0.00548388
-0.0112734
-0.0086109
-0.00788756
-0.00713723
-0.00693403
-0.00697388
-0.00721109
-0.00760429
-0.00818515
-0.00896003
-0.0100629
-0.0115273
-0.0135485
-0.0159416
-0.0188349
-0.0205095
-0.0211096
-0.0149992
-0.0061067
0.0341537
-0.00790766
-0.0107387
-0.00964492
-0.0095193
-0.00893644
-0.00856538
-0.00837466
-0.00839453
-0.00867627
-0.00920205
-0.0100986
-0.0113505
-0.0132605
-0.0155166
-0.0185024
-0.0198785
-0.0195912
-0.0073613
0.0153188
0.086731
-0.0334264
-0.0081901
-0.00664947
-0.00576748
-0.00540003
-0.00544498
-0.00579343
-0.00624057
-0.00690036
-0.00766831
-0.00881674
-0.0101641
-0.0120365
-0.0137621
-0.0151946
-0.012839
-0.00402915
0.0270539
0.0893756
0.213754
4.17379e-05
1.32626e-05
6.32998e-05
0.000160375
0.00031281
0.000522214
0.00079192
0.00112615
0.00152876
0.00200208
0.0025453
0.00315234
0.00380903
0.00449039
0.00515798
0.00576106
0.00624123
0.00654917
0.00669034
0.00660458
7.19068e-05
4.30039e-05
0.000100665
0.000200046
0.000351429
0.000557145
0.000821019
0.00114742
0.00154026
0.0020021
0.00253272
0.00312707
0.00377171
0.00444374
0.00510624
0.0057081
0.0061883
0.0064944
0.00663679
0.00653406
8.09084e-06
-3.00008e-05
2.61346e-05
0.000121194
0.000266416
0.000464211
0.000718924
0.00103576
0.0014199
0.00187578
0.00240561
0.00300719
0.00367117
0.00437691
0.00508531
0.0057387
0.00626193
0.00658413
0.0067169
0.00656209
-0.000126812
-0.000171085
-0.000118365
-3.03855e-05
0.000105036
0.000290544
0.000531225
0.000833479
0.00120435
0.00165108
0.00217985
0.0027934
0.00348711
0.00424468
0.00502813
0.00577039
0.00637347
0.00672931
0.00684525
0.00660068
-0.000342671
-0.000392096
-0.000345395
-0.000267832
-0.000146403
2.18326e-05
0.000242777
0.000524215
0.000875441
0.00130719
0.00183094
0.00245674
0.00318864
0.00401667
0.00490803
0.00578627
0.00652107
0.00693992
0.00702742
0.0066266
-0.000637905
-0.000692279
-0.000654048
-0.00059046
-0.000487959
-0.000343455
-0.000150427
0.000100088
0.000419512
0.000822202
0.00132554
0.00194897
0.00270925
0.00360955
0.00463315
0.00570278
0.00664896
0.00719093
0.00723931
0.00656385
-0.00100838
-0.00106809
-0.00104076
-0.000995113
-0.000917447
-0.000804919
-0.00065103
-0.000446437
-0.000178557
0.000169561
0.000620444
0.00120312
0.00195088
0.00289045
0.00403104
0.00532693
0.00658709
0.00737592
0.00740213
0.00632219
-0.0014487
-0.00151448
-0.0015004
-0.00147687
-0.00143056
-0.00135959
-0.00125861
-0.00111954
-0.000930977
-0.00067648
-0.000332541
0.000133721
0.000766881
0.00161989
0.00273527
0.00417189
0.00581442
0.00711718
0.00726994
0.00591398
-0.00195207
-0.00202473
-0.00202572
-0.00202794
-0.00201913
-0.00199943
-0.0019662
-0.00191499
-0.00183934
-0.00172958
-0.00157134
-0.00134415
-0.00102244
-0.000570803
9.53197e-05
0.00119578
0.00307346
0.00540046
0.00630604
0.00556966
-0.00251044
-0.0025906
-0.00260709
-0.002637
-0.00266988
-0.00270915
-0.00275675
-0.0028148
-0.0028867
-0.00297809
-0.00309951
-0.00327487
-0.00356502
-0.00406126
-0.00470178
-0.00486508
-0.00327844
0.000454281
0.00345701
0.0051211
-0.00311525
-0.00320332
-0.00323344
-0.00328987
-0.00336452
-0.00346558
-0.0036012
-0.00378285
-0.00402869
-0.0043691
-0.00485801
-0.00559759
-0.00679727
-0.00876046
-0.011433
-0.0136606
-0.0131031
-0.00818101
-0.00262214
0.0024254
-0.00375809
-0.00385304
-0.00389003
-0.00396639
-0.00407671
-0.00423481
-0.00445555
-0.00476072
-0.00518536
-0.00578872
-0.00667603
-0.00803686
-0.010217
-0.0136507
-0.0182353
-0.0224956
-0.0236668
-0.0185429
-0.0115504
-0.00340727
-0.00443636
-0.00453839
-0.00457214
-0.0046563
-0.00478748
-0.00498633
-0.00527414
-0.00568154
-0.00625675
-0.00708043
-0.00829329
-0.0101385
-0.0130212
-0.0173882
-0.0231628
-0.0286096
-0.0315583
-0.0273198
-0.0205247
-0.0105966
-0.00514289
-0.00523938
-0.00524266
-0.00530958
-0.0054404
-0.00565918
-0.00598835
-0.00646174
-0.00713373
-0.00809242
-0.00949067
-0.0115747
-0.0147623
-0.0193752
-0.025534
-0.031211
-0.0353926
-0.0319791
-0.0264036
-0.0157163
-0.00590757
-0.00601511
-0.00596788
-0.00599984
-0.0060933
-0.00628663
-0.00660531
-0.0070851
-0.0077788
-0.00876782
-0.0101994
-0.0122749
-0.0154119
-0.0197041
-0.0254486
-0.0304465
-0.0347529
-0.031237
-0.0278612
-0.0160482
-0.00683896
-0.00673091
-0.00654724
-0.0064458
-0.00647552
-0.00664215
-0.00695348
-0.00742812
-0.00810777
-0.00905519
-0.0104048
-0.0122844
-0.0150517
-0.01869
-0.0233463
-0.0270932
-0.0301078
-0.0264116
-0.0253664
-0.00964185
-0.00733358
-0.0077442
-0.00740733
-0.0073386
-0.00723504
-0.00725974
-0.00742571
-0.00776572
-0.00831914
-0.00912569
-0.010296
-0.0119303
-0.0142603
-0.0171821
-0.0208702
-0.0234457
-0.0253606
-0.0211838
-0.0192162
0.00610824
-0.0109515
-0.00832646
-0.00759198
-0.00686079
-0.00667707
-0.0067382
-0.00699021
-0.0073896
-0.00796265
-0.00872106
-0.00978771
-0.0112173
-0.0132067
-0.0155851
-0.0184456
-0.0200402
-0.020533
-0.0148735
-0.00667293
0.0356627
-0.00732013
-0.0103166
-0.00924195
-0.00918026
-0.00862853
-0.00828493
-0.00810967
-0.00813219
-0.00840345
-0.00890563
-0.0097662
-0.010985
-0.0128736
-0.0151485
-0.0182016
-0.019665
-0.0195406
-0.00738125
0.01524
0.089708
-0.0328564
-0.0076063
-0.00606724
-0.00525052
-0.00494632
-0.00503868
-0.00541658
-0.00587935
-0.00653811
-0.00729097
-0.00841236
-0.00973029
-0.0115912
-0.0133188
-0.0147821
-0.0123624
-0.00344317
0.0281334
0.0911762
0.219403
6.5398e-05
3.56161e-05
8.60394e-05
0.000184104
0.000338588
0.000551209
0.000825586
0.00116635
0.00157791
0.00206315
0.00262183
0.00324823
0.00392808
0.00463544
0.00532947
0.00595562
0.00645062
0.00676157
0.00689583
0.00679559
9.80898e-05
6.74941e-05
0.000125773
0.000226213
0.000379607
0.000588392
0.000856688
0.00118928
0.00159062
0.00206386
0.00260941
0.00322263
0.0038899
0.00458833
0.00527784
0.00590348
0.00639877
0.00670705
0.00684105
0.00672422
3.72848e-05
-2.91972e-06
5.39271e-05
0.00015007
0.00029733
0.000498226
0.000757443
0.00108066
0.0014737
0.00194174
0.00248782
0.00311044
0.00380101
0.00453767
0.00527883
0.00596169
0.00650336
0.00682621
0.00694414
0.00676879
-9.43325e-05
-0.000141028
-8.74952e-05
1.62561e-06
0.000139179
0.000327936
0.000573383
0.000882494
0.00126308
0.00172337
0.00227074
0.00290899
0.003634
0.00443089
0.00525694
0.00603846
0.00666587
0.00701894
0.00710673
0.00682954
-0.000307209
-0.00035929
-0.000311691
-0.000232906
-0.000109185
6.25738e-05
0.000288747
0.000577812
0.000940018
0.00138739
0.00193305
0.00258879
0.00335998
0.00423755
0.00518542
0.00611737
0.0068852
0.00729443
0.00732913
0.0068762
-0.000599748
-0.000656975
-0.000617787
-0.0005529
-0.000447938
-0.000299615
-0.000100857
0.00015811
0.000489846
0.000910289
0.00143893
0.00209779
0.00290625
0.00386839
0.0049654
0.00610763
0.00709795
0.00761551
0.00757043
0.00681474
-0.000967702
-0.00103047
-0.00100216
-0.000955216
-0.000875021
-0.000758521
-0.000598618
-0.000385084
-0.000104091
0.000263065
0.000741299
0.00136275
0.0021634
0.00316764
0.0043997
0.0057863
0.00710046
0.00783779
0.00771719
0.00652993
-0.00140551
-0.00147458
-0.00145961
-0.00143491
-0.00138622
-0.00131146
-0.00120468
-0.00105697
-0.000855794
-0.000583104
-0.00021329
0.000289188
0.000971414
0.00188867
0.00307343
0.00458618
0.00627282
0.00750356
0.00748444
0.00604057
-0.00190613
-0.00198236
-0.00198267
-0.00198407
-0.00197335
-0.0019505
-0.0019124
-0.00185403
-0.00176822
-0.00164467
-0.00146873
-0.00122135
-0.000883291
-0.000430985
0.000214615
0.00129958
0.00314382
0.00544072
0.00631436
0.00564156
-0.00246114
-0.00254521
-0.00256136
-0.00259102
-0.0026228
-0.00266009
-0.00270454
-0.00275818
-0.00282461
-0.00291066
-0.00303037
-0.00321732
-0.00355636
-0.0041707
-0.00498869
-0.00532481
-0.00385546
-0.000158816
0.00315833
0.00516192
-0.0030614
-0.00315379
-0.00318403
-0.003241
-0.00331567
-0.0034163
-0.00355109
-0.00373198
-0.00397863
-0.00432519
-0.00483454
-0.00562859
-0.0069576
-0.00918035
-0.0122243
-0.0147869
-0.0144583
-0.00966663
-0.00355299
0.00211016
-0.00369755
-0.00379723
-0.00383487
-0.00391269
-0.00402431
-0.00418366
-0.00440587
-0.00471373
-0.00514474
-0.0057638
-0.00668844
-0.00813285
-0.0104845
-0.0142391
-0.0192699
-0.0238978
-0.0254159
-0.0207027
-0.013254
-0.00448075
-0.00436592
-0.00447334
-0.00450837
-0.00459501
-0.00472871
-0.00493017
-0.00522099
-0.00563281
-0.00621635
-0.00705779
-0.00830913
-0.0102351
-0.0132792
-0.0179076
-0.0240335
-0.029668
-0.0327245
-0.0289041
-0.0220284
-0.0119259
-0.00505705
-0.00515957
-0.00516464
-0.00523508
-0.00536957
-0.00559201
-0.00592477
-0.00640222
-0.00708033
-0.00805102
-0.0094745
-0.0116111
-0.0149018
-0.0196483
-0.02595
-0.0313948
-0.035252
-0.0319887
-0.0267022
-0.0164478
-0.00580058
-0.00591539
-0.00587014
-0.00590715
-0.00600531
-0.00620285
-0.00652464
-0.00700635
-0.00770113
-0.0086923
-0.0101302
-0.0122196
-0.0153853
-0.0196759
-0.0253443
-0.0299166
-0.0334063
-0.030035
-0.0270305
-0.0160695
-0.0066966
-0.00659829
-0.006418
-0.00632386
-0.00635965
-0.00653141
-0.00684578
-0.00732046
-0.00799615
-0.00893627
-0.0102751
-0.012136
-0.0148818
-0.0184579
-0.0229482
-0.026282
-0.0286832
-0.0250498
-0.024022
-0.00928472
-0.00715268
-0.00757981
-0.00724071
-0.00718421
-0.00708859
-0.00711986
-0.00728845
-0.00762623
-0.00817126
-0.00896323
-0.0101116
-0.0117144
-0.0140131
-0.0168786
-0.0204429
-0.0227676
-0.024238
-0.0201383
-0.0179811
0.00674313
-0.0106996
-0.00810354
-0.00737142
-0.00665731
-0.00648219
-0.00655219
-0.006809
-0.00720769
-0.00777274
-0.00851772
-0.00955141
-0.010952
-0.0129091
-0.015244
-0.0180225
-0.0194755
-0.0197067
-0.0141342
-0.00570133
0.0366655
-0.00704633
-0.0100847
-0.00899949
-0.00895939
-0.00841453
-0.00807891
-0.00790657
-0.00792564
-0.00818644
-0.00866983
-0.0095033
-0.0106934
-0.0125578
-0.0148089
-0.0178263
-0.019197
-0.0189005
-0.00676879
0.0161547
0.0913662
-0.0325535
-0.00730445
-0.005759
-0.00495514
-0.00467162
-0.0047832
-0.00517306
-0.00563896
-0.0062913
-0.00702984
-0.00812843
-0.00942058
-0.0112556
-0.0129541
-0.0143697
-0.0118686
-0.0027238
0.0291217
0.0927602
0.222055
8.81998e-05
5.80848e-05
0.000109218
0.000208636
0.00036547
0.000581615
0.000860994
0.00120865
0.00162946
0.00212685
0.00270104
0.00334658
0.00404911
0.00478134
0.00550046
0.00614831
0.00665723
0.0069713
0.0070996
0.00698735
0.000122046
9.0869e-05
0.000149929
0.000251752
0.000407491
0.000619746
0.000892944
0.00123227
0.00164266
0.00212781
0.00268863
0.00332079
0.0040106
0.00473437
0.00544958
0.00609752
0.00660676
0.00691709
0.00704338
0.00691498
6.3159e-05
2.22198e-05
7.99123e-05
0.000177484
0.000327155
0.00053162
0.000795901
0.00112613
0.0015287
0.00200947
0.00257213
0.00321576
0.00393217
0.00469831
0.00547005
0.00617974
0.00673762
0.00706034
0.00716418
0.00697222
-6.61723e-05
-0.000113723
-5.92707e-05
3.13512e-05
0.000171437
0.000363952
0.000614774
0.000931412
0.00132238
0.00179675
0.00236288
0.00302547
0.00378126
0.00461401
0.00547847
0.00629424
0.00694139
0.00728963
0.00735012
0.00704738
-0.00027677
-0.000329797
-0.000281213
-0.000200841
-7.44276e-05
0.000101356
0.000333344
0.000630654
0.00100439
0.00146767
0.00203495
0.00271924
0.00352559
0.0044494
0.00544655
0.0064231
0.00721514
0.00760997
0.00759367
0.00710204
-0.000567106
-0.000625361
-0.000585142
-0.000518602
-0.000410808
-0.000258216
-5.32291e-05
0.000214657
0.000558998
0.000997064
0.00155005
0.00224189
0.00309388
0.00410889
0.0052665
0.00646538
0.00748417
0.007968
0.00783443
0.00702352
-0.000932917
-0.000996797
-0.000967472
-0.000918879
-0.000835825
-0.000714981
-0.000548695
-0.000325967
-3.19197e-05
0.000353545
0.000857108
0.001513
0.00235909
0.00342029
0.00471683
0.0061666
0.00750894
0.00817847
0.00792434
0.00667022
-0.00136854
-0.00143884
-0.00142294
-0.00139674
-0.00134538
-0.00126652
-0.0011537
-0.000997357
-0.000784028
-0.000494601
-0.000102262
0.00042969
0.00114804
0.00210311
0.00333046
0.00487963
0.00657335
0.00770289
0.00754432
0.0060628
-0.00186675
-0.00194434
-0.00194391
-0.00194415
-0.00193123
-0.00190497
-0.00186187
-0.0017965
-0.00170135
-0.00156604
-0.0013768
-0.00111788
-0.000779399
-0.000353925
0.000232653
0.00123709
0.00304547
0.0052743
0.00615257
0.00559108
-0.0024188
-0.00250439
-0.00252012
-0.00254914
-0.00257949
-0.00261449
-0.00265568
-0.00270512
-0.00276697
-0.00284985
-0.00297245
-0.00317955
-0.00358188
-0.00434225
-0.00540207
-0.00597508
-0.00463568
-0.000926502
0.00271563
0.00510089
-0.0030151
-0.00310918
-0.00313943
-0.00319643
-0.00327066
-0.00337043
-0.00350411
-0.0036843
-0.00393236
-0.00428661
-0.0048195
-0.00567335
-0.00713953
-0.00963793
-0.013098
-0.0160676
-0.0159612
-0.0111391
-0.00448212
0.00174767
-0.00364558
-0.00374712
-0.00378522
-0.00386384
-0.00397605
-0.00413595
-0.00435907
-0.00466926
-0.00510656
-0.00574148
-0.00670354
-0.00823139
-0.0107565
-0.0148205
-0.0202951
-0.025285
-0.0270052
-0.0224016
-0.0146293
-0.00537905
-0.00430583
-0.00441537
-0.00445136
-0.00453955
-0.00467475
-0.00487781
-0.00517068
-0.00558608
-0.00617713
-0.0070351
-0.00832233
-0.0103239
-0.013516
-0.018376
-0.0248035
-0.0305158
-0.03347
-0.0297324
-0.0229523
-0.0127912
-0.0049851
-0.00508998
-0.00509648
-0.00516921
-0.00530591
-0.00553048
-0.0058654
-0.00634562
-0.00702862
-0.00800957
-0.00945523
-0.0116366
-0.0150162
-0.019864
-0.0262593
-0.0313937
-0.0349034
-0.0316128
-0.0267682
-0.0167666
-0.0057133
-0.005831
-0.0057873
-0.00582739
-0.00592821
-0.00612792
-0.00645107
-0.00693328
-0.00762809
-0.00862006
-0.0100625
-0.0121609
-0.0153526
-0.0196214
-0.025196
-0.0293842
-0.0322703
-0.0289267
-0.0264303
-0.0158218
-0.00658469
-0.00649072
-0.00631338
-0.00622407
-0.00626327
-0.00643738
-0.00675237
-0.00722532
-0.00789637
-0.00882859
-0.0101572
-0.0119995
-0.0147219
-0.0182375
-0.0225877
-0.0256071
-0.0275451
-0.0239471
-0.0232162
-0.00873113
-0.00702543
-0.00745846
-0.00711657
-0.00706593
-0.00697353
-0.00700715
-0.0071754
-0.00750919
-0.00804594
-0.00882458
-0.00995398
-0.0115297
-0.0137938
-0.0165976
-0.0200445
-0.0221802
-0.0233598
-0.0193519
-0.0173789
0.00744255
-0.0105163
-0.00793978
-0.0072154
-0.0065138
-0.00634302
-0.00641582
-0.00667234
-0.00706678
-0.00762318
-0.0083546
-0.00936558
-0.0107389
-0.0126642
-0.014945
-0.0176371
-0.0189715
-0.0190352
-0.0135534
-0.0052415
0.0375534
-0.00690896
-0.00995664
-0.00885543
-0.00882238
-0.00827578
-0.00793933
-0.00776374
-0.00777559
-0.00802642
-0.0084937
-0.00930896
-0.0104728
-0.0123124
-0.0145194
-0.0174747
-0.0187512
-0.0183391
-0.00615436
0.0167836
0.0926781
-0.0323686
-0.0071304
-0.00558023
-0.00477792
-0.0045019
-0.00461991
-0.00501393
-0.00547717
-0.00612369
-0.00684882
-0.00793251
-0.00919965
-0.0110089
-0.012656
-0.0140025
-0.0113742
-0.00208064
0.0300003
0.0938119
0.223832
0.000108479
7.84494e-05
0.000130413
0.000231301
0.000390496
0.000610086
0.00089428
0.00124847
0.00167796
0.00218662
0.00277501
0.00343789
0.00416061
0.00491503
0.00565623
0.00632302
0.00684401
0.00716083
0.00728409
0.00716201
0.000142847
0.000111574
0.000171474
0.000274776
0.000432886
0.00064858
0.000926562
0.00127236
0.00169134
0.00218764
0.00276256
0.00341197
0.0041222
0.00486838
0.00560613
0.00627342
0.00679462
0.00710658
0.00722611
0.00708829
8.51839e-05
4.40978e-05
0.000102675
0.000201779
0.000353903
0.000561927
0.000831176
0.00116818
0.0015798
0.00207246
0.00265038
0.00331308
0.00405253
0.00484449
0.00564268
0.0063752
0.00694646
0.00726844
0.00735965
0.00715441
-4.25859e-05
-9.03201e-05
-3.49292e-05
5.72998e-05
0.000199961
0.000396225
0.000652318
0.000976206
0.00137698
0.00186443
0.00244764
0.00313197
0.00391469
0.00477855
0.00567559
0.00651975
0.00718235
0.00752475
0.00756038
0.00723795
-0.000251508
-0.000304742
-0.000255166
-0.000173106
-4.39735e-05
0.000135795
0.000373435
0.000678602
0.0010631
0.00154095
0.00212765
0.00283731
0.00367587
0.00463703
0.00567479
0.00668741
0.00749745
0.00787628
0.00781332
0.00729293
-0.000540136
-0.000598619
-0.000557377
-0.000489093
-0.000378471
-0.000221704
-1.07486e-05
0.000265505
0.000621415
0.00107529
0.00164964
0.00236954
0.00325627
0.00431654
0.00552385
0.00676818
0.00780761
0.00825548
0.00804022
0.0071904
-0.000904232
-0.000968369
-0.000938037
-0.000887719
-0.000801838
-0.000676799
-0.000504488
-0.000273283
3.25089e-05
0.000434029
0.000959227
0.00164381
0.00252697
0.00363351
0.00498131
0.00648129
0.00784434
0.00844282
0.00806331
0.00676612
-0.00133808
-0.00140868
-0.00139186
-0.00136408
-0.00131008
-0.0012273
-0.00110887
-0.000944702
-0.000720714
-0.000417102