/*--------------------------------*- C++ -*----------------------------------*\
  =========                 |
  \\      /  F ield         | OpenFOAM: The Open Source CFD Toolbox
   \\    /   O peration     | Website:  https://openfoam.org
    \\  /    A nd           | Version:  10
     \\/     M anipulation  |
\*---------------------------------------------------------------------------*/
FoamFile
{
    format      ascii;
    class       surfaceScalarField;
    location    "5.7";
    object      phi;
}
// * * * * * * * * * * * * * * * * * * * * * * * * * * * * * * * * * * * * * //

dimensions      [0 3 -1 0 0 0 0];

internalField   nonuniform List<scalar> 
760
(
-8.93028e-06
8.93027e-06
-2.96523e-05
2.0722e-05
-5.41121e-05
2.44599e-05
-7.9085e-05
2.49729e-05
-0.000103536
2.4451e-05
-0.000127023
2.34869e-05
-0.000149117
2.20943e-05
-0.000169255
2.01381e-05
-0.000186705
1.74502e-05
-0.000200558
1.38524e-05
-0.000209732
9.17411e-06
-0.000213011
3.27874e-06
-0.000209112
-3.89827e-06
-0.000196869
-1.2243e-05
-0.00017546
-2.14095e-05
-0.000144741
-3.07191e-05
-0.00010581
-3.89307e-05
-6.20179e-05
-4.37923e-05
-2.10559e-05
-4.0962e-05
-2.10559e-05
-2.17578e-05
3.06881e-05
-6.17863e-05
6.07505e-05
-0.000107314
6.99877e-05
-0.000153195
7.08534e-05
-0.000197496
6.87524e-05
-0.000239198
6.51886e-05
-0.000277387
6.0284e-05
-0.000311043
5.37935e-05
-0.00033897
4.53769e-05
-0.000359782
3.46647e-05
-0.000371878
2.12702e-05
-0.000373641
5.04185e-06
-0.000363318
-1.42218e-05
-0.000339364
-3.61964e-05
-0.000300829
-5.99443e-05
-0.00024778
-8.37685e-05
-0.000182091
-0.000104619
-0.000108988
-0.000116896
-3.99248e-05
-0.000110025
-6.09807e-05
-2.69812e-05
5.76693e-05
-7.50625e-05
0.000108832
-0.000129136
0.000124061
-0.000183273
0.000124991
-0.000235291
0.00012077
-0.000284034
0.000113932
-0.000328482
0.000104732
-0.000367519
9.28298e-05
-0.000399855
7.77128e-05
-0.000423995
5.88053e-05
-0.000438272
3.55467e-05
-0.00044077
7.53997e-06
-0.00042936
-2.56314e-05
-0.0004022
-6.33564e-05
-0.000357897
-0.000104247
-0.000296153
-0.000145513
-0.000218768
-0.000182004
-0.000131673
-0.000203991
-4.85834e-05
-0.000193114
-0.000109564
-2.89664e-05
8.66357e-05
-8.06574e-05
0.000160523
-0.000138635
0.000182039
-0.000196629
0.000182985
-0.000252442
0.000176583
-0.000304966
0.000166456
-0.000353239
0.000153005
-0.000396197
0.000135788
-0.000432584
0.0001141
-0.000460882
8.71027e-05
-0.000479262
5.39272e-05
-0.000485602
1.38798e-05
-0.000477307
-3.39259e-05
-0.00045164
-8.90234e-05
-0.000406211
-0.000149677
-0.000339658
-0.000212066
-0.000253218
-0.000268444
-0.000153386
-0.000303823
-5.66329e-05
-0.000289867
-0.000166197
-3.01167e-05
0.000116752
-8.43528e-05
0.000214759
-0.000145256
0.000242942
-0.00020631
0.00024404
-0.000265366
0.000235639
-0.000321441
0.000222531
-0.000373718
0.000205281
-0.000421275
0.000183345
-0.000462965
0.00015579
-0.000497298
0.000121436
-0.000522316
7.89445e-05
-0.000535477
2.70412e-05
-0.00053362
-3.57828e-05
-0.000512731
-0.000109913
-0.000468766
-0.000193642
-0.000398436
-0.000282395
-0.000301409
-0.000365472
-0.000184566
-0.000420666
-6.85119e-05
-0.000405921
-0.000234709
-3.12848e-05
0.000148037
-8.81985e-05
0.000271673
-0.000152256
0.000306999
-0.00021667
0.000308453
-0.000279362
0.000298331
-0.000339533
0.000282702
-0.000396586
0.000262334
-0.000449832
0.000236591
-0.000498344
0.000204302
-0.000540773
0.000163866
-0.000575129
0.000113301
-0.000598522
5.04336e-05
-0.000607091
-2.72129e-05
-0.000595087
-0.000121917
-0.00055603
-0.000232699
-0.000483402
-0.000355023
-0.000373702
-0.000475172
-0.000233032
-0.000561336
-8.78722e-05
-0.000551081
-0.000322581
-3.26822e-05
0.000180719
-9.27226e-05
0.000331713
-0.000160428
0.000374704
-0.000228678
0.000376704
-0.00029549
0.000365144
-0.000360305
0.000347517
-0.000422836
0.000324865
-0.000482761
0.000296516
-0.000539536
0.000261076
-0.000592164
0.000216494
-0.000638861
0.000159998
-0.00067655
8.81226e-05
-0.000700991
-2.77221e-06
-0.000704196
-0.000118712
-0.000676493
-0.000260403
-0.000606222
-0.000425295
-0.000483769
-0.000597625
-0.000311132
-0.000733973
-0.000121485
-0.000740728
-0.000444066
-3.43431e-05
0.000215062
-9.80185e-05
0.000395388
-0.000169855
0.000446541
-0.000242325
0.000449173
-0.000313559
0.000436378
-0.000383306
0.000417264
-0.000451699
0.000393258
-0.00051894
0.000363757
-0.000585109
0.000327245
-0.000649897
0.000281281
-0.000712184
0.000222285
-0.000769373
0.000145312
-0.000816338
4.41929e-05
-0.000844858
-9.01914e-05
-0.000840405
-0.000264856
-0.000784156
-0.000481544
-0.000655566
-0.000726214
-0.000444791
-0.000944748
-0.000185762
-0.000999758
-0.000629828
-3.63054e-05
0.000251368
-0.000104154
0.000463237
-0.000180541
0.000522928
-0.000257433
0.000526064
-0.0003331
0.000512044
-0.000407663
0.000491827
-0.000481788
0.000467384
-0.000556385
0.000438354
-0.000632445
0.000403305
-0.000710795
0.000359632
-0.000791636
0.000303126
-0.000873695
0.000227371
-0.000952663
0.00012316
-0.00102104
-2.18175e-05
-0.00106054
-0.000225349
-0.0010442
-0.000497884
-0.000933946
-0.000836471
-0.000690733
-0.00118796
-0.000320984
-0.00136951
-0.000950812
-3.86896e-05
0.000290057
-0.000111344
0.000535892
-0.000192645
0.000604229
-0.00027395
0.00060737
-0.000353694
0.000591788
-0.000432431
0.000570564
-0.000511452
0.000546405
-0.000592535
0.000519437
-0.000677879
0.000488649
-0.000769978
0.000451731
-0.000871286
0.000404434
-0.000983444
0.00033953
-0.00110567
0.000245391
-0.00123234
0.000104846
-0.00135002
-0.000107669
-0.00142561
-0.000422293
-0.00139551
-0.000866574
-0.00115259
-0.00143088
-0.000605135
-0.00191696
-0.00155595
-4.17735e-05
0.000331831
-0.000120091
0.00061421
-0.000206656
0.000690793
-0.000292138
0.000692853
-0.000375181
0.00067483
-0.000456823
0.000652206
-0.000539025
0.000628608
-0.000624496
0.000604907
-0.000716818
0.000580971
-0.000820621
0.000555534
-0.000941632
0.000525445
-0.00108637
0.000484271
-0.00126127
0.000420283
-0.00147021
0.000313788
-0.00171334
0.000135467
-0.00196531
-0.000170323
-0.0021185
-0.000713382
-0.00191703
-0.00163235
-0.00108846
-0.00274554
-0.0026444
-4.6112e-05
0.000377943
-0.00013138
0.000699477
-0.000223599
0.000783012
-0.000312771
0.000782025
-0.000397867
0.000759927
-0.000480464
0.000734803
-0.000563164
0.000711308
-0.000649507
0.000691251
-0.000744375
0.000675839
-0.000854617
0.000665776
-0.000989896
0.000660724
-0.00116376
0.000658132
-0.00139466
0.000651186
-0.00170642
0.000625544
-0.00212006
0.000549107
-0.00261422
0.000323835
-0.00300172
-0.000325882
-0.00278945
-0.00184461
-0.0016048
-0.00393019
-0.0042492
-5.27045e-05
0.000430647
-0.000146904
0.000793677
-0.000245276
0.000881384
-0.000337434
0.000874183
-0.000422838
0.000845331
-0.000503717
0.000815681
-0.000583255
0.000790846
-0.000665433
0.000773428
-0.000755828
0.000766234
-0.000862811
0.000772758
-0.000999355
0.000797268
-0.00118596
0.000844734
-0.0014547
0.000919927
-0.00185019
0.00102104
-0.0024106
0.00110951
-0.00307117
0.000984404
-0.00351811
0.000121059
-0.0032
-0.00216272
-0.00187755
-0.00525265
-0.00612675
-6.4181e-05
0.000494828
-0.000170467
0.000899963
-0.000274754
0.000985672
-0.000367872
0.000967301
-0.000451152
0.000928611
-0.000527534
0.000892063
-0.000599993
0.000863305
-0.000672307
0.000845742
-0.000749797
0.000843725
-0.000840687
0.000863648
-0.000958602
0.000915183
-0.00112625
0.00101238
-0.00138012
0.00117379
-0.00176303
0.00140395
-0.00229345
0.00163994
-0.00286129
0.00155224
-0.00319085
0.000450615
-0.00288592
-0.00246765
-0.00185756
-0.006281
-0.00798431
-7.81245e-05
0.000572953
-0.000199995
0.00102183
-0.000313426
0.0010991
-0.000410354
0.00106423
-0.000490662
0.00100892
-0.000558712
0.000960113
-0.000618426
0.000923019
-0.000673185
0.000900502
-0.000726403
0.000896943
-0.000782869
0.000920114
-0.000851376
0.00098369
-0.000945998
0.00110701
-0.00109145
0.00131925
-0.00130712
0.00161961
-0.00160174
0.00193457
-0.001871
0.00182151
-0.00204592
0.000625527
-0.00199605
-0.00251751
-0.00148734
-0.00678971
-0.00947166
-0.000144557
0.000717509
-0.00028052
0.0011578
-0.000383204
0.00120179
-0.000461572
0.0011426
-0.000526737
0.00107408
-0.000582505
0.00101588
-0.000629511
0.000970025
-0.000666874
0.000937865
-0.000693534
0.000923603
-0.000707506
0.000934086
-0.000707268
0.000983452
-0.000690678
0.00109042
-0.000659431
0.001288
-0.00060064
0.00156082
-0.000524979
0.0018589
-0.000450229
0.00174676
-0.000454962
0.000630259
-0.000744621
-0.00222785
-0.000792132
-0.0067422
-0.0102638
-9.50527e-05
0.000812562
-0.000294666
0.00135741
-0.000440882
0.001348
-0.000541505
0.00124322
-0.000608175
0.00114075
-0.000650694
0.0010584
-0.000673838
0.000993169
-0.000678532
0.00094256
-0.000662771
0.000907841
-0.000618824
0.000890139
-0.000536203
0.000900831
-0.000394939
0.000949152
-0.000171309
0.00106437
0.00015267
0.00123684
0.000582936
0.00142864
0.000984274
0.00134542
0.00109001
0.000524525
0.000533788
-0.00167163
4.50236e-05
-0.00625343
-0.0102188
-0.000388213
0.00120078
-0.000474214
0.00144341
-0.000559077
0.00143287
-0.000636326
0.00132047
-0.000668964
0.00117339
-0.000663909
0.00105334
-0.000628398
0.000957657
-0.000563395
0.000877557
-0.000472057
0.000816504
-0.000347136
0.000765218
-0.000181651
0.000735346
4.41172e-05
0.000723383
0.000356408
0.00075208
0.000781961
0.000811288
0.00133116
0.000879437
0.00186026
0.000816322
0.00223823
0.00014655
0.00191886
-0.00135226
0.00100677
-0.00534134
-0.009212
-0.00135315
0.00255393
-0.00131765
0.00140791
-0.00107298
0.00118819
-0.000719065
0.000966558
-0.000342659
0.000796986
3.68168e-05
0.000673869
0.000406238
0.000588236
0.000763308
0.000520487
0.00110825
0.000471557
0.00144391
0.000429564
0.00177883
0.000400428
0.00212075
0.000381463
0.00250223
0.000370599
0.0029389
0.000374612
0.00348873
0.000329615
0.00407139
0.000233661
0.00442723
-0.000209294
0.00428803
-0.00121306
0.00267286
-0.00372617
-0.00653914
0.00255393
0.00396183
0.00515003
0.00611659
0.00691357
0.00758744
0.00817568
0.00869616
0.00916772
0.00959728
0.00999771
0.0103792
0.0107498
0.0111244
0.011454
0.0116877
0.0114784
0.0102653
0.00653914
)
;

boundaryField
{
    movingWall
    {
        type            calculated;
        value           uniform 0;
    }
    fixedWalls
    {
        type            calculated;
        value           uniform 0;
    }
    frontAndBack
    {
        type            empty;
        value           nonuniform List<scalar> 0();
    }
}


// ************************************************************************* //
