/*--------------------------------*- C++ -*----------------------------------*\
  =========                 |
  \\      /  F ield         | OpenFOAM: The Open Source CFD Toolbox
   \\    /   O peration     | Website:  https://openfoam.org
    \\  /    A nd           | Version:  10
     \\/     M anipulation  |
\*---------------------------------------------------------------------------*/
FoamFile
{
    format      ascii;
    class       volVectorField;
    location    "5.7";
    object      U;
}
// * * * * * * * * * * * * * * * * * * * * * * * * * * * * * * * * * * * * * //

dimensions      [0 1 -1 0 0 0 0];

internalField   nonuniform List<vector> 
400
(
(-9.66096e-05 8.92186e-05 0)
(-0.000836841 0.000319554 0)
(-0.00209429 0.000395746 0)
(-0.00333517 0.000410517 0)
(-0.00457699 0.000409048 0)
(-0.00578081 0.000403037 0)
(-0.00692517 0.000391725 0)
(-0.0079865 0.000371313 0)
(-0.00893279 0.000337426 0)
(-0.00972314 0.000285463 0)
(-0.0103076 0.00021108 0)
(-0.0106286 0.000111113 0)
(-0.0106227 -1.76584e-05 0)
(-0.0102269 -0.000174446 0)
(-0.00938968 -0.000352613 0)
(-0.0080818 -0.000538481 0)
(-0.0063218 -0.000705975 0)
(-0.00423746 -0.000808169 0)
(-0.00188388 -0.000752302 0)
(-0.000313485 -0.00034284 0)
(-0.00034893 0.000846068 0)
(-0.00189088 0.00181789 0)
(-0.00423029 0.00212415 0)
(-0.00652955 0.00216228 0)
(-0.00879726 0.0021101 0)
(-0.0109588 0.00201647 0)
(-0.0129662 0.00188368 0)
(-0.0147731 0.00170186 0)
(-0.0163244 0.00145825 0)
(-0.0175556 0.00113931 0)
(-0.0183919 0.000732053 0)
(-0.0187525 0.000225553 0)
(-0.0185515 -0.00038375 0)
(-0.0177038 -0.00108404 0)
(-0.0161445 -0.00184646 0)
(-0.0138435 -0.00261506 0)
(-0.0108451 -0.00328918 0)
(-0.00734323 -0.00368557 0)
(-0.00343747 -0.00345524 0)
(-0.000684972 -0.0018423 0)
(-0.000448708 0.00219122 0)
(-0.00232476 0.004205 0)
(-0.00511235 0.00481454 0)
(-0.00783333 0.00486131 0)
(-0.0105027 0.0047051 0)
(-0.0130353 0.0044462 0)
(-0.0153769 0.0040942 0)
(-0.0174761 0.00363458 0)
(-0.0192734 0.00304628 0)
(-0.0206994 0.00230623 0)
(-0.0216751 0.00139215 0)
(-0.0221107 0.000286398 0)
(-0.0219034 -0.00101477 0)
(-0.0209515 -0.00249119 0)
(-0.0191709 -0.00408512 0)
(-0.0165095 -0.00568407 0)
(-0.0129981 -0.00708486 0)
(-0.00885002 -0.00791362 0)
(-0.00417274 -0.00746621 0)
(-0.000842003 -0.00420311 0)
(-0.000479612 0.00359315 0)
(-0.00249772 0.00670509 0)
(-0.00549235 0.00762 0)
(-0.00840635 0.00766659 0)
(-0.0112675 0.00740075 0)
(-0.0139895 0.00697558 0)
(-0.0165211 0.00640736 0)
(-0.0188141 0.00567645 0)
(-0.020811 0.00475251 0)
(-0.0224428 0.00360054 0)
(-0.0236267 0.00218546 0)
(-0.0242643 0.000479304 0)
(-0.0242366 -0.00152927 0)
(-0.0234078 -0.00382434 0)
(-0.021646 -0.00632814 0)
(-0.0188445 -0.00887513 0)
(-0.0149864 -0.0111482 0)
(-0.0102911 -0.0125404 0)
(-0.00487168 -0.0119124 0)
(-0.000977729 -0.00680342 0)
(-0.000492173 0.00506976 0)
(-0.00260385 0.00935074 0)
(-0.00575095 0.0105882 0)
(-0.00881313 0.0106383 0)
(-0.0118315 0.0102672 0)
(-0.0147226 0.00968412 0)
(-0.0174422 0.00891282 0)
(-0.0199497 0.0079283 0)
(-0.0221942 0.00668955 0)
(-0.0241103 0.00514628 0)
(-0.0256131 0.00324379 0)
(-0.0265914 0.000931759 0)
(-0.0269036 -0.00182214 0)
(-0.0263684 -0.00501929 0)
(-0.0247798 -0.00857784 0)
(-0.0219387 -0.0122858 0)
(-0.0177275 -0.015693 0)
(-0.0123395 -0.0178883 0)
(-0.00589562 -0.0171506 0)
(-0.00118511 -0.00987967 0)
(-0.000503965 0.00660291 0)
(-0.00271249 0.0121252 0)
(-0.00602204 0.0137072 0)
(-0.00924548 0.0137699 0)
(-0.0124381 0.0133055 0)
(-0.015521 0.0125841 0)
(-0.0184607 0.0116382 0)
(-0.0212284 0.0104379 0)
(-0.0237851 0.00893014 0)
(-0.0260747 0.00704531 0)
(-0.0280154 0.00470068 0)
(-0.0294877 0.00180935 0)
(-0.0303267 -0.00170381 0)
(-0.0302925 -0.00588864 0)
(-0.0290757 -0.0106879 0)
(-0.0263331 -0.015864 0)
(-0.0217697 -0.0208148 0)
(-0.0154719 -0.0242289 0)
(-0.00753895 -0.0235495 0)
(-0.00154484 -0.013692 0)
(-0.000518851 0.00819871 0)
(-0.00284146 0.0150425 0)
(-0.00633979 0.0169944 0)
(-0.00974843 0.0170801 0)
(-0.0131388 0.016537 0)
(-0.0164385 0.0157024 0)
(-0.0196284 0.0146204 0)
(-0.0226973 0.0132574 0)
(-0.0256252 0.0115483 0)
(-0.0283756 0.00940082 0)
(-0.030881 0.00669561 0)
(-0.0330236 0.00329064 0)
(-0.0346273 -0.000965242 0)
(-0.0353922 -0.00618935 0)
(-0.0348781 -0.0124314 0)
(-0.0325346 -0.0194789 0)
(-0.0277696 -0.0265882 0)
(-0.0203808 -0.03193 0)
(-0.0103273 -0.0317021 0)
(-0.00222294 -0.0187253 0)
(-0.000537119 0.00987046 0)
(-0.00299405 0.0181283 0)
(-0.00670979 0.020476 0)
(-0.0103247 0.0205923 0)
(-0.0139294 0.0199834 0)
(-0.0174597 0.019062 0)
(-0.0209152 0.0178885 0)
(-0.0243086 0.0164295 0)
(-0.0276492 0.0146103 0)
(-0.0309341 0.0123166 0)
(-0.0341313 0.00938688 0)
(-0.0371538 0.00560779 0)
(-0.0398161 0.000720396 0)
(-0.0417985 -0.00552932 0)
(-0.042546 -0.0133852 0)
(-0.0412187 -0.0227783 0)
(-0.0367775 -0.0329173 0)
(-0.0283904 -0.0413782 0)
(-0.0154938 -0.042542 0)
(-0.00365083 -0.0259439 0)
(-0.000559516 0.0116322 0)
(-0.00317348 0.0214089 0)
(-0.0071352 0.0241752 0)
(-0.0109709 0.024322 0)
(-0.0147947 0.0236534 0)
(-0.0185518 0.0226683 0)
(-0.022265 0.0214501 0)
(-0.0259781 0.0199726 0)
(-0.0297406 0.0181592 0)
(-0.0336016 0.0158797 0)
(-0.0375925 0.0129336 0)
(-0.0416946 0.00902957 0)
(-0.0457802 0.00377176 0)
(-0.0495724 -0.00333723 0)
(-0.052454 -0.0127993 0)
(-0.0533248 -0.0249369 0)
(-0.0505734 -0.0391867 0)
(-0.0421754 -0.0527044 0)
(-0.0259729 -0.0575258 0)
(-0.00693831 -0.037457 0)
(-0.000589066 0.0135014 0)
(-0.00338912 0.0249131 0)
(-0.00762742 0.0281113 0)
(-0.0116913 0.0282744 0)
(-0.0157244 0.0275391 0)
(-0.0196822 0.0265033 0)
(-0.0236144 0.0252822 0)
(-0.0276016 0.0238675 0)
(-0.0317444 0.0221944 0)
(-0.0361627 0.0201343 0)
(-0.0409863 0.0174661 0)
(-0.0463273 0.0138342 0)
(-0.0522241 0.00869547 0)
(-0.0585399 0.00127778 0)
(-0.0648288 -0.00934029 0)
(-0.0700337 -0.0241484 0)
(-0.0719948 -0.0434545 0)
(-0.0665195 -0.0649994 0)
(-0.047261 -0.078858 0)
(-0.014225 -0.0576779 0)
(-0.000633072 0.015505 0)
(-0.00366216 0.0286772 0)
(-0.00821431 0.0323021 0)
(-0.0125067 0.0324438 0)
(-0.0167225 0.031613 0)
(-0.0208291 0.0305207 0)
(-0.0249045 0.0293235 0)
(-0.0290683 0.0280435 0)
(-0.0334767 0.0266474 0)
(-0.0383341 0.0250378 0)
(-0.0439012 0.0230158 0)
(-0.0504914 0.020216 0)
(-0.058438 0.0160068 0)
(-0.0680193 0.009383 0)
(-0.0794157 -0.00108157 0)
(-0.0923048 -0.0172194 0)
(-0.104164 -0.0415667 0)
(-0.106237 -0.0756871 0)
(-0.0828225 -0.110095 0)
(-0.0260218 -0.0960352 0)
(-0.000706768 0.0176897 0)
(-0.00403415 0.0327556 0)
(-0.00895064 0.0367707 0)
(-0.0134643 0.0368175 0)
(-0.0178183 0.0358286 0)
(-0.0219932 0.0346429 0)
(-0.0260956 0.0334673 0)
(-0.0302806 0.0323664 0)
(-0.0347535 0.0313619 0)
(-0.0398 0.0304301 0)
(-0.0458231 0.0294654 0)
(-0.0533936 0.0282087 0)
(-0.0632995 0.0261262 0)
(-0.0765767 0.0222577 0)
(-0.0945705 0.0149847 0)
(-0.118522 0.0010025 0)
(-0.144609 -0.0275481 0)
(-0.154143 -0.0835828 0)
(-0.12075 -0.158776 0)
(-0.0372487 -0.163343 0)
(-0.000839638 0.0201244 0)
(-0.00457772 0.0371838 0)
(-0.00993019 0.0414721 0)
(-0.0146516 0.0412984 0)
(-0.0190804 0.0400665 0)
(-0.0232127 0.0387326 0)
(-0.0271851 0.037543 0)
(-0.0311766 0.0366145 0)
(-0.035416 0.036046 0)
(-0.0402351 0.0359306 0)
(-0.0461394 0.0363413 0)
(-0.0539202 0.0372905 0)
(-0.0648124 0.0386522 0)
(-0.0807109 0.0399833 0)
(-0.104473 0.0397326 0)
(-0.138082 0.0311755 0)
(-0.173196 -0.0046032 0)
(-0.179283 -0.0996146 0)
(-0.136802 -0.23174 0)
(-0.0447199 -0.258227 0)
(-0.00110904 0.023049 0)
(-0.00547946 0.0423846 0)
(-0.0113393 0.0468818 0)
(-0.0161891 0.0463422 0)
(-0.0205771 0.0446374 0)
(-0.0245384 0.0429193 0)
(-0.0282171 0.0415163 0)
(-0.0317802 0.0406102 0)
(-0.0354412 0.0403855 0)
(-0.0395131 0.0410848 0)
(-0.0444941 0.043049 0)
(-0.0512142 0.0467377 0)
(-0.0610444 0.0527291 0)
(-0.0760316 0.0611749 0)
(-0.0991929 0.0696496 0)
(-0.130932 0.0648808 0)
(-0.162254 0.0153974 0)
(-0.159112 -0.121954 0)
(-0.128636 -0.300783 0)
(-0.047801 -0.360387 0)
(-0.00148991 0.0266469 0)
(-0.00653584 0.0471915 0)
(-0.0131643 0.0511408 0)
(-0.0182784 0.0497413 0)
(-0.0226828 0.0475988 0)
(-0.0263447 0.0457337 0)
(-0.0294903 0.044344 0)
(-0.0323011 0.0435565 0)
(-0.0349302 0.0435925 0)
(-0.037555 0.0448234 0)
(-0.0404686 0.0478653 0)
(-0.0441754 0.0536514 0)
(-0.0496397 0.0634143 0)
(-0.0579964 0.077326 0)
(-0.0711109 0.0915798 0)
(-0.0875545 0.0863885 0)
(-0.107114 0.0266345 0)
(-0.0999699 -0.132554 0)
(-0.10278 -0.339706 0)
(-0.0355024 -0.451833 0)
(-0.0035491 0.0299692 0)
(-0.0108492 0.055887 0)
(-0.0169221 0.0597401 0)
(-0.0213282 0.0578658 0)
(-0.024852 0.0544039 0)
(-0.0278545 0.0512342 0)
(-0.0304017 0.0487182 0)
(-0.0324893 0.0470463 0)
(-0.0340664 0.0464435 0)
(-0.0350479 0.0472875 0)
(-0.0353276 0.0502971 0)
(-0.0347521 0.0565807 0)
(-0.0335499 0.0677619 0)
(-0.0308518 0.083498 0)
(-0.0285445 0.100048 0)
(-0.0222179 0.0941746 0)
(-0.027041 0.0343733 0)
(-0.0193371 -0.122906 0)
(-0.0589937 -0.348568 0)
(-0.0112575 -0.509119 0)
(-0.00120421 0.0439946 0)
(-0.00880013 0.0584203 0)
(-0.0198628 0.0588262 0)
(-0.0247332 0.0542989 0)
(-0.0290779 0.0510332 0)
(-0.0316901 0.0486149 0)
(-0.0332988 0.0468283 0)
(-0.0339879 0.0455537 0)
(-0.0337312 0.0449622 0)
(-0.0322906 0.045343 0)
(-0.0292592 0.0474078 0)
(-0.0237002 0.0519392 0)
(-0.015346 0.0605331 0)
(-0.0008893 0.0726519 0)
(0.0158691 0.0856824 0)
(0.0436644 0.0810743 0)
(0.0494951 0.0304587 0)
(0.0575544 -0.097908 0)
(-0.00843476 -0.327609 0)
(0.0154478 -0.522922 0)
(-0.0123388 0.0330736 0)
(-0.0244935 0.0799321 0)
(-0.0243228 0.0786228 0)
(-0.030904 0.073425 0)
(-0.0332398 0.0661603 0)
(-0.0338641 0.0599499 0)
(-0.0327013 0.0547725 0)
(-0.0301009 0.0505833 0)
(-0.026194 0.0473761 0)
(-0.0207469 0.0449913 0)
(-0.0137971 0.0438508 0)
(-0.00395753 0.0441751 0)
(0.00844868 0.0474434 0)
(0.0280399 0.0528926 0)
(0.0491108 0.0604533 0)
(0.0850353 0.0579125 0)
(0.0946771 0.0258508 0)
(0.124774 -0.0634517 0)
(0.0567343 -0.291316 0)
(0.0583424 -0.508012 0)
(-0.0770759 0.0969513 0)
(-0.0627988 0.0596691 0)
(-0.0651403 0.0599823 0)
(-0.0439764 0.0533138 0)
(-0.0269715 0.0464232 0)
(-0.00737775 0.0412587 0)
(0.0111037 0.0375273 0)
(0.0296154 0.034286 0)
(0.0465856 0.0318718 0)
(0.0645288 0.029535 0)
(0.0798868 0.0280807 0)
(0.0990502 0.0269119 0)
(0.112948 0.0267732 0)
(0.139659 0.0274842 0)
(0.151152 0.0251786 0)
(0.199214 0.0199615 0)
(0.195998 -0.0138371 0)
(0.24182 -0.0806204 0)
(0.168457 -0.265361 0)
(0.12812 -0.444678 0)
(0.119842 0.140658 0)
(0.152476 0.0861284 0)
(0.229607 0.063572 0)
(0.2849 0.0481736 0)
(0.326261 0.0374952 0)
(0.364608 0.0297395 0)
(0.393186 0.0243312 0)
(0.424809 0.0203237 0)
(0.444337 0.0174639 0)
(0.473375 0.0152904 0)
(0.485918 0.0135308 0)
(0.515487 0.0125532 0)
(0.521194 0.0113816 0)
(0.554852 0.0111238 0)
(0.550537 0.00973035 0)
(0.587826 0.00612751 0)
(0.55985 -0.00298995 0)
(0.570568 -0.0268782 0)
(0.432313 -0.072684 0)
(0.277268 -0.152008 0)
)
;

boundaryField
{
    movingWall
    {
        type            fixedValue;
        value           uniform (1 0 0);
    }
    fixedWalls
    {
        type            noSlip;
    }
    frontAndBack
    {
        type            empty;
    }
}


// ************************************************************************* //
