/*--------------------------------*- C++ -*----------------------------------*\
  =========                 |
  \\      /  F ield         | OpenFOAM: The Open Source CFD Toolbox
   \\    /   O peration     | Website:  https://openfoam.org
    \\  /    A nd           | Version:  10
     \\/     M anipulation  |
\*---------------------------------------------------------------------------*/
FoamFile
{
    format      ascii;
    class       volScalarField;
    location    "2.05";
    object      p;
}
// * * * * * * * * * * * * * * * * * * * * * * * * * * * * * * * * * * * * * //

dimensions      [0 2 -2 0 0 0 0];

internalField   nonuniform List<scalar> 
496
(
31.6733
31.875
28.6296
22.5822
32.2314
32.9046
29.0801
22.9195
36.9242
34.8129
26.5582
16.3517
44.674
41.4805
38.1513
22.8584
14.038
4.90531
13.9969
5.30862
1.26133
-3.43773
-26.2263
-51.9861
-2.22906
-7.05311
-9.38872
-10.1046
-2.20219
-8.1262
-12.0167
-13.4966
2.47034
1.22722
-1.54898
-5.01775
-22.5943
-14.5473
-9.67496
-5.41323
-10.5465
-11.202
-12.2964
-13.4456
-14.0979
-13.9686
-13.1321
-12.129
-11.2114
-10.6177
-10.1286
-9.52098
-8.65413
-7.84091
-7.68495
-8.04116
-8.31343
-8.00272
-7.13834
-5.94849
-4.80071
-3.77241
-2.73037
-1.83014
-1.16181
-0.862907
-0.81654
-0.858497
-0.882901
-0.990696
-1.25038
-1.57978
-1.6383
-1.41796
-1.02344
-0.559114
-0.264623
-0.0783721
0.00381866
0.0312502
-13.7085
-14.2952
-15.1142
-15.3406
-14.8801
-14.0945
-13.0519
-12.1003
-11.3444
-10.7307
-10.0912
-9.2693
-8.36954
-7.69437
-7.6273
-7.90328
-8.34443
-8.15579
-7.44144
-6.3079
-5.08584
-3.87965
-2.6988
-1.53069
-0.782307
-0.537577
-0.633597
-0.932424
-1.06005
-1.24123
-1.4115
-1.60305
-1.61299
-1.41489
-1.0515
-0.607386
-0.181246
0.137889
0.22488
0.195482
-10.0076
-14.5117
-16.5417
-15.9659
-15.26
-14.3982
-13.2187
-12.3867
-11.7514
-10.8748
-9.89611
-8.75517
-7.73735
-7.44896
-7.82973
-8.73927
-9.18602
-9.3272
-8.41188
-6.65773
-4.745
-3.08631
-1.94289
-1.0762
-0.444265
-0.154677
-0.624156
-1.24284
-1.82781
-2.04154
-2.36806
-2.2593
-1.73855
-1.12069
-0.333323
0.0275703
0.199271
0.524684
0.324875
0.0945253
-11.2265
-16.5553
-16.9666
-15.0465
-15.2684
-15.611
-13.7067
-13.4349
-12.6975
-10.9258
-9.00111
-7.14589
-6.02424
-6.24173
-7.08206
-8.57275
-9.83782
-10.796
-10.2078
-8.76256
-6.10499
-2.96694
-0.0946719
1.87427
1.90274
1.19388
-0.053175
-1.00225
-2.19151
-3.05952
-3.43323
-3.1146
-2.60975
-1.70799
-0.261114
0.859681
2.33128
2.3488
1.85711
0.915167
49.1412
50.5474
64.9271
77.4855
48.6099
50.6879
64.7209
77.1664
-27.7103
-27.9003
-2.35204
-16.8934
-28.3949
-9.5906
-3.83114
-13.9985
-17.1277
-16.5911
-14.7342
-16.0179
-18.4723
-15.8196
-13.8107
-16.363
-12.3146
-11.1855
-10.7705
-8.96643
-8.3626
-8.00027
-7.80988
-7.8468
-8.21976
-8.57976
-8.49061
-7.12782
-5.77945
-4.3511
-2.93708
-2.09116
-1.60587
-1.48285
-1.59527
-1.44363
-1.33512
-1.52568
-1.53939
-1.41845
-1.15471
-0.820366
-0.618248
-0.118679
0.142487
0.126992
0.419427
0.134792
-20.1852
-16.6296
-17.7499
-16.6577
-16.0114
-16.5022
-12.7264
-12.7951
-11.8951
-11.5753
-11.6502
-11.3004
-11.3118
-10.6514
-9.469
-7.75008
-5.87371
-4.32116
-3.31
-3.17481
-3.46115
-4.18843
-5.02302
-5.84025
-6.03063
-5.12126
-3.91144
-2.41048
-0.773815
0.496566
1.24929
1.68984
1.48326
0.970823
0.390434
-0.512077
-1.23687
-1.53856
-1.98029
-0.971717
44.0469
41.1509
37.4751
21.4261
36.7341
34.043
25.4069
14.4664
31.5346
31.662
27.1268
20.7054
30.6184
30.4717
26.8936
20.6781
-31.0831
-58.0371
-1.17905
-5.47945
11.6253
2.72125
12.0735
2.91143
-28.6811
-5.19053
0.900518
-8.10713
1.92266
2.29453
-1.42411
-6.98494
-4.57931
-9.44854
-11.4894
-12.2773
-3.64356
-7.5236
-9.08259
-9.77016
-14.0246
-15.884
-15.4492
-14.8979
-12.8643
-10.2695
-10.4787
-11.4578
-10.885
-11.6389
-12.6431
-13.0081
-12.833
-11.7712
-10.2191
-7.21022
-4.20446
-1.20182
-0.156295
-0.831992
-2.31197
-4.38257
-6.01099
-7.33727
-7.18087
-6.29734
-4.67522
-2.91916
-0.696731
1.51691
3.49115
3.87013
3.50525
2.30865
0.806286
-0.522072
-1.91537
-2.16163
-2.14305
-1.26766
-11.6961
-14.7125
-15.4797
-14.8223
-13.7172
-12.7626
-12.1989
-12.191
-12.2844
-12.527
-12.7949
-12.5676
-11.8481
-10.2629
-8.54548
-6.5292
-4.8902
-3.88233
-2.89519
-2.9945
-3.74124
-5.07618
-6.13121
-6.53682
-6.06307
-4.92215
-3.38791
-1.92334
-0.722484
0.381126
0.879964
1.60767
1.54723
0.914673
0.0944909
-0.649408
-1.10976
-1.25512
-0.981713
-0.349337
-13.1204
-14.1521
-14.6939
-14.3817
-13.5765
-12.5121
-11.6893
-11.2675
-11.2632
-11.3668
-11.7005
-11.4454
-10.691
-9.52903
-8.243
-7.03376
-5.71316
-4.51147
-3.60474
-3.28936
-3.51242
-4.06181
-4.7317
-4.98604
-4.61213
-3.86553
-3.04345
-2.1732
-1.36728
-0.485899
0.399206
1.10067
1.38448
1.22246
0.748799
0.324805
-0.00201762
-0.0687346
0.00869363
-0.0973428
-10.5142
-11.4681
-12.3977
-13.0294
-13.0091
-12.5889
-12.1907
-11.7819
-11.5961
-11.4966
-11.4831
-11.2017
-10.5929
-9.63638
-8.39625
-7.21166
-5.91168
-4.82919
-3.94948
-3.59569
-3.70628
-4.21229
-4.6342
-4.70871
-4.39708
-3.64886
-2.83737
-2.07043
-1.37013
-0.670251
0.117408
0.796298
1.14681
1.03866
0.636529
0.225429
0.232679
0.179876
0.0668369
-0.0671115
)
;

boundaryField
{
    inlet
    {
        type            zeroGradient;
    }
    outlet
    {
        type            fixedValue;
        value           uniform 0;
    }
    obstacle
    {
        type            zeroGradient;
    }
    upperWall
    {
        type            zeroGradient;
    }
    lowerWall
    {
        type            zeroGradient;
    }
    frontAndBack
    {
        type            empty;
    }
}


// ************************************************************************* //
