/*--------------------------------*- C++ -*----------------------------------*\
  =========                 |
  \\      /  F ield         | OpenFOAM: The Open Source CFD Toolbox
   \\    /   O peration     | Website:  https://openfoam.org
    \\  /    A nd           | Version:  10
     \\/     M anipulation  |
\*---------------------------------------------------------------------------*/
FoamFile
{
    format      ascii;
    class       volScalarField;
    location    "4.375";
    object      p;
}
// * * * * * * * * * * * * * * * * * * * * * * * * * * * * * * * * * * * * * //

dimensions      [0 2 -2 0 0 0 0];

internalField   nonuniform List<scalar> 
475
(
-0.0504773
-0.0759041
-0.105213
-0.128729
-0.151773
-0.0759982
-0.0896742
-0.106044
-0.124784
-0.14208
-0.0743602
-0.0838246
-0.0986981
-0.116422
-0.13281
-0.073786
-0.0845668
-0.0993246
-0.11508
-0.128415
-0.0439706
-0.0707931
-0.0944603
-0.112145
-0.124704
-0.169925
-0.181498
-0.187569
-0.194491
-0.207672
-0.224785
-0.237241
-0.242097
-0.237564
-0.223379
-0.20069
-0.174092
-0.147404
-0.12104
-0.0979763
-0.0796465
-0.0655844
-0.0563007
-0.0462493
-0.0295734
-0.0113998
0.000941181
0.00761946
0.0126662
0.0180734
0.0232685
0.0270309
0.0288586
0.0290248
0.0280943
0.0265712
0.0247839
0.022905
0.0210101
0.0191261
0.0172596
0.0154092
0.0135712
0.0117431
0.00992097
0.00810792
0.00630113
0.00449811
0.00269766
0.000898857
-0.158598
-0.171374
-0.179349
-0.184085
-0.189195
-0.19468
-0.19848
-0.197904
-0.192423
-0.18256
-0.167835
-0.15355
-0.140953
-0.126559
-0.11322
-0.101855
-0.0895678
-0.0776023
-0.0635043
-0.0433868
-0.0227439
-0.00724916
0.00301902
0.0107997
0.0175771
0.0232255
0.027205
0.0293141
0.0297779
0.029054
0.0276007
0.0257629
0.0237577
0.0217049
0.0196624
0.0176545
0.0156885
0.0137628
0.0118719
0.0100071
0.00816225
0.00633312
0.0045152
0.00270517
0.000900211
-0.146222
-0.156509
-0.162712
-0.166044
-0.167148
-0.166267
-0.164516
-0.160337
-0.15475
-0.148599
-0.143433
-0.142912
-0.140112
-0.132936
-0.128683
-0.123513
-0.111769
-0.095614
-0.0753465
-0.0499247
-0.0258254
-0.00831649
0.00329244
0.0116735
0.0183307
0.0236137
0.0273866
0.0295405
0.0302006
0.0296793
0.0283475
0.0265283
0.0244595
0.0222969
0.0201312
0.0180088
0.015943
0.0139379
0.0119863
0.0100794
0.00820634
0.0063582
0.00452791
0.00271029
0.000900776
-0.13909
-0.147126
-0.151399
-0.153108
-0.151146
-0.146489
-0.13962
-0.13101
-0.123603
-0.117309
-0.122232
-0.138618
-0.142117
-0.131157
-0.124694
-0.124789
-0.11881
-0.104328
-0.0810627
-0.0525833
-0.026699
-0.00777374
0.00452342
0.0128705
0.0191384
0.0240601
0.0276606
0.0298187
0.0305741
0.0301493
0.0288649
0.0270336
0.0249069
0.0226642
0.0204097
0.018208
0.0160825
0.0140315
0.0120466
0.0101158
0.00822682
0.00636839
0.00453179
0.0027106
0.000899607
-0.134109
-0.140809
-0.144639
-0.144909
-0.141802
-0.135482
-0.12569
-0.115509
-0.105132
-0.100074
-0.108999
-0.127996
-0.141585
-0.142097
-0.135223
-0.125553
-0.112453
-0.0948222
-0.0721856
-0.0466283
-0.0238267
-0.00645422
0.00550954
0.0138779
0.0200873
0.0248077
0.0281779
0.0301694
0.0308365
0.0303754
0.0290664
0.0272063
0.0250482
0.0227721
0.0204996
0.0182799
0.0161356
0.014069
0.0120718
0.0101317
0.00823609
0.0063732
0.00453394
0.00271105
0.00089933
-0.199179
-0.201158
-0.204111
-0.210914
-0.225851
-0.247656
-0.268209
-0.278364
-0.272704
-0.250368
-0.212492
-0.162648
-0.107037
-0.0519364
-0.00340509
0.0353435
0.0628769
0.0788931
0.0843382
0.0825352
0.0766512
0.0682294
0.0582902
0.0474168
0.0373056
0.029497
0.0244506
0.0216983
0.0204372
0.019927
0.0196467
0.0192918
0.018731
0.0179314
0.0169073
0.0156925
0.0143245
0.0128373
0.0112595
0.00961493
0.00792175
0.00619433
0.00444283
0.00267493
0.000895972
-0.189796
-0.193882
-0.200034
-0.212632
-0.233361
-0.259125
-0.281307
-0.292832
-0.289052
-0.268918
-0.232213
-0.182377
-0.126163
-0.0688001
-0.0196823
0.0198448
0.0490808
0.0673309
0.0752032
0.0755465
0.0713251
0.0641124
0.0546512
0.0447292
0.0359438
0.0293019
0.0249622
0.0224894
0.0212427
0.0206212
0.0201892
0.0196973
0.0190255
0.0181385
0.0170486
0.0157874
0.0143872
0.0128776
0.0112845
0.00962962
0.00792988
0.00619826
0.0044444
0.00267502
0.000895535
-0.199618
-0.197849
-0.201915
-0.215742
-0.240557
-0.269061
-0.292839
-0.306266
-0.302755
-0.282142
-0.2457
-0.197181
-0.143102
-0.0889319
-0.0408612
-0.00251345
0.0260242
0.0451901
0.0547295
0.0570589
0.0552536
0.0507203
0.0447106
0.0383034
0.0330017
0.0290013
0.0261174
0.0241925
0.0229678
0.0221203
0.021382
0.0205876
0.0196603
0.0185803
0.0173526
0.0159928
0.0145249
0.0129672
0.0113403
0.00966279
0.00794834
0.00620726
0.00444761
0.00267504
0.000894313
-0.187749
-0.19001
-0.19418
-0.207855
-0.23091
-0.256734
-0.278158
-0.291014
-0.290696
-0.274631
-0.243199
-0.199962
-0.152305
-0.104983
-0.0620347
-0.0279362
-0.00308006
0.0147026
0.0250643
0.0297184
0.031804
0.0318158
0.0299439
0.0280462
0.0272219
0.0270429
0.0268356
0.0262906
0.0254435
0.0244148
0.0232761
0.0220531
0.0207514
0.0193711
0.0179132
0.0163818
0.0147845
0.0131375
0.0114498
0.0097316
0.00798974
0.00623048
0.00445914
0.0026795
0.000894655
-0.219154
-0.19687
-0.195728
-0.203548
-0.222916
-0.246419
-0.264452
-0.274374
-0.272649
-0.257393
-0.229674
-0.193141
-0.154276
-0.116772
-0.0826476
-0.0553107
-0.0361732
-0.0220736
-0.00985268
0.000814315
0.00868803
0.013106
0.0150573
0.0173085
0.0206761
0.0242626
0.0267647
0.0277296
0.0274588
0.0264382
0.0250385
0.0234729
0.0218409
0.0201786
0.0184948
0.0167905
0.0150673
0.0133286
0.0115779
0.00981601
0.00804257
0.00626153
0.00447576
0.00268683
0.000895987
)
;

boundaryField
{
    inlet
    {
        type            zeroGradient;
    }
    outlet
    {
        type            fixedValue;
        value           uniform 0;
    }
    upperWall
    {
        type            zeroGradient;
    }
    lowerWall
    {
        type            zeroGradient;
    }
    frontAndBack
    {
        type            empty;
    }
}


// ************************************************************************* //
