/*--------------------------------*- C++ -*----------------------------------*\
  =========                 |
  \\      /  F ield         | OpenFOAM: The Open Source CFD Toolbox
   \\    /   O peration     | Website:  https://openfoam.org
    \\  /    A nd           | Version:  10
     \\/     M anipulation  |
\*---------------------------------------------------------------------------*/
FoamFile
{
    format      ascii;
    class       volVectorField;
    location    "3.7";
    object      U;
}
// * * * * * * * * * * * * * * * * * * * * * * * * * * * * * * * * * * * * * //

dimensions      [0 1 -1 0 0 0 0];

internalField   nonuniform List<vector> 
8000
(
(-7.34693e-05 8.43564e-05 -1.45787e-05)
(-0.000496256 0.000189724 1.78178e-05)
(-0.00115409 0.000210272 2.71213e-05)
(-0.00177275 0.00020901 3.09072e-05)
(-0.00237983 0.000201954 3.01423e-05)
(-0.00295164 0.000191497 2.66703e-05)
(-0.00347316 0.000177151 2.14105e-05)
(-0.00393017 0.000158045 1.4461e-05)
(-0.0043069 0.000133338 6.03896e-06)
(-0.00458722 0.00010214 -4.2474e-06)
(-0.00475419 6.45454e-05 -1.55189e-05)
(-0.00479039 2.08681e-05 -2.77702e-05)
(-0.00468031 -2.96294e-05 -4.08933e-05)
(-0.00441205 -8.47929e-05 -5.44095e-05)
(-0.00397955 -0.000142126 -6.74621e-05)
(-0.00338494 -0.000198176 -7.86883e-05)
(-0.0026436 -0.000247999 -8.56118e-05)
(-0.0018007 -0.000282968 -8.43219e-05)
(-0.000842131 -0.000278743 -7.21449e-05)
(-0.000160944 -0.000148173 -2.07677e-05)
(-0.000177875 0.000539957 -5.99892e-05)
(-0.000908715 0.000949763 -3.00821e-05)
(-0.00195721 0.00102211 -1.91387e-05)
(-0.00294472 0.0010021 -1.14674e-05)
(-0.00390333 0.000951665 -7.79777e-06)
(-0.00479677 0.000881487 -6.41613e-06)
(-0.0056009 0.000791613 -6.40464e-06)
(-0.00629387 0.000680485 -7.66753e-06)
(-0.00685299 0.000546549 -1.02664e-05)
(-0.00725503 0.000388491 -1.43488e-05)
(-0.00747647 0.000206378 -1.99636e-05)
(-0.00749631 6.52801e-07 -2.72725e-05)
(-0.00729435 -0.0002247 -3.55005e-05)
(-0.00685458 -0.00046319 -4.46434e-05)
(-0.00617141 -0.000705101 -5.38522e-05)
(-0.00525004 -0.000936873 -6.16167e-05)
(-0.00411454 -0.00113946 -6.50089e-05)
(-0.00282826 -0.00127938 -5.97193e-05)
(-0.00137814 -0.00126535 -4.36237e-05)
(-0.000298574 -0.000770767 1.52836e-05)
(-0.000205015 0.00126414 -7.89787e-05)
(-0.0010279 0.00207271 -5.0022e-05)
(-0.00219728 0.00220622 -3.83714e-05)
(-0.00329552 0.00215162 -2.90572e-05)
(-0.00436009 0.00203104 -2.35282e-05)
(-0.00535171 0.00186641 -2.0106e-05)
(-0.00624465 0.00165937 -1.79312e-05)
(-0.00701561 0.00140841 -1.69705e-05)
(-0.00764032 0.00111185 -1.73928e-05)
(-0.00809402 0.000768687 -1.93915e-05)
(-0.00835209 0.000379308 -2.30485e-05)
(-0.0083886 -5.39505e-05 -2.85671e-05)
(-0.00817937 -0.00052398 -3.56398e-05)
(-0.00770652 -0.00101792 -4.40072e-05)
(-0.00696 -0.00151639 -5.28181e-05)
(-0.00594153 -0.00199228 -6.03921e-05)
(-0.00467397 -0.00240786 -6.33982e-05)
(-0.00322638 -0.00269633 -5.69357e-05)
(-0.00158174 -0.00267833 -3.88988e-05)
(-0.000346373 -0.00171256 2.5452e-05)
(-0.000213864 0.0019995 -9.40495e-05)
(-0.00108284 0.00322261 -6.59844e-05)
(-0.00232051 0.0034176 -5.39341e-05)
(-0.00348184 0.00332787 -4.35536e-05)
(-0.00461031 0.00313816 -3.68269e-05)
(-0.00566542 0.00288137 -3.20975e-05)
(-0.00662151 0.00256036 -2.85397e-05)
(-0.00745515 0.00217325 -2.61813e-05)
(-0.00814145 0.00171769 -2.52669e-05)
(-0.00865417 0.00119199 -2.60749e-05)
(-0.00896597 0.000596515 -2.88664e-05)
(-0.00904905 -6.45018e-05 -3.40782e-05)
(-0.00887306 -0.000784199 -4.08763e-05)
(-0.00841068 -0.00154429 -4.94118e-05)
(-0.00764413 -0.00231675 -5.87471e-05)
(-0.00656719 -0.00306061 -6.70816e-05)
(-0.00519704 -0.00371691 -7.05546e-05)
(-0.00360718 -0.00418038 -6.33491e-05)
(-0.00177654 -0.0041731 -4.30968e-05)
(-0.000390272 -0.00270652 2.91442e-05)
(-0.000222106 0.00279056 -0.000107745)
(-0.00114005 0.00446066 -7.9944e-05)
(-0.00245341 0.00472214 -6.7523e-05)
(-0.00368625 0.00459685 -5.63687e-05)
(-0.00488862 0.00433671 -4.89101e-05)
(-0.00601898 0.00398645 -4.34781e-05)
(-0.00705228 0.00355021 -3.92637e-05)
(-0.00796546 0.00302554 -3.63441e-05)
(-0.0087334 0.00240889 -3.50279e-05)
(-0.00932852 0.00169697 -3.56793e-05)
(-0.00972035 0.000888281 -3.86786e-05)
(-0.0098766 -1.47116e-05 -4.45403e-05)
(-0.00975929 -0.00100223 -5.23884e-05)
(-0.00932982 -0.00205568 -6.25878e-05)
(-0.00855693 -0.00313949 -7.40827e-05)
(-0.00741952 -0.00419833 -8.4736e-05)
(-0.00592263 -0.00514777 -8.99139e-05)
(-0.0041433 -0.00583365 -8.2405e-05)
(-0.0020561 -0.00585968 -5.90602e-05)
(-0.000455464 -0.00383495 2.60021e-05)
(-0.000233028 0.00363993 -0.000122877)
(-0.00121316 0.00579531 -9.49162e-05)
(-0.00262219 0.00613025 -8.20998e-05)
(-0.00394557 0.00597011 -7.02305e-05)
(-0.00524121 0.00563982 -6.21942e-05)
(-0.00646656 0.00519714 -5.62998e-05)
(-0.00759773 0.0046476 -5.17582e-05)
(-0.0086127 0.00398789 -4.87028e-05)
(-0.00948672 0.00321255 -4.75089e-05)
(-0.0101914 0.00231541 -4.86201e-05)
(-0.0106938 0.0012913 -5.2479e-05)
(-0.0109548 0.000138562 -5.94113e-05)
(-0.0109281 -0.0011358 -7.03124e-05)
(-0.0105607 -0.00251514 -8.39085e-05)
(-0.00979993 -0.00395891 -9.95597e-05)
(-0.00860147 -0.00539776 -0.000114775)
(-0.0069477 -0.00671738 -0.000123701)
(-0.00491399 -0.00769997 -0.00011697)
(-0.00246682 -0.00779922 -8.97888e-05)
(-0.00055461 -0.00514637 1.34412e-05)
(-0.000246926 0.00456111 -0.00014149)
(-0.00130448 0.00724839 -0.000113317)
(-0.00283158 0.00766513 -0.000100044)
(-0.00426566 0.00747061 -8.73012e-05)
(-0.00567454 0.00707043 -7.85488e-05)
(-0.00701471 0.00653698 -7.21004e-05)
(-0.00826432 0.00587757 -6.72204e-05)
(-0.00940343 0.00508784 -6.41268e-05)
(-0.0104089 0.00415971 -6.32962e-05)
(-0.0112528 0.00308271 -6.5301e-05)
(-0.0119001 0.00184559 -7.07022e-05)
(-0.0123065 0.000439432 -7.9923e-05)
(-0.0124157 -0.00113817 -9.53661e-05)
(-0.0121557 -0.00287757 -0.000114578)
(-0.011445 -0.00473968 -0.000137414)
(-0.0102032 -0.00664495 -0.000160954)
(-0.00837203 -0.0084455 -0.000177509)
(-0.00601093 -0.00984086 -0.000174192)
(-0.00307031 -0.010083 -0.000142719)
(-0.000707779 -0.00672034 -1.29706e-05)
(-0.000263771 0.00557159 -0.000165169)
(-0.00141495 0.00884752 -0.000137028)
(-0.00308358 0.00935493 -0.000123163)
(-0.00464812 0.00912507 -0.000109159)
(-0.00618895 0.00865399 -9.9267e-05)
(-0.00766188 0.00803104 -9.1873e-05)
(-0.00904833 0.00726601 -8.63585e-05)
(-0.0103321 0.0063538 -8.30803e-05)
(-0.0114935 0.00528323 -8.26702e-05)
(-0.0125073 0.00403818 -8.59141e-05)
(-0.0133389 0.00259857 -9.3583e-05)
(-0.0139404 0.00094333 -0.00010629)
(-0.014247 -0.000944172 -0.000128688)
(-0.0141646 -0.00307377 -0.000156758)
(-0.0135735 -0.00541826 -0.000191653)
(-0.0123402 -0.00789838 -0.000230112)
(-0.0103378 -0.0103341 -0.000261864)
(-0.00757565 -0.012322 -0.00026812)
(-0.00397204 -0.012829 -0.00023325)
(-0.000953575 -0.00867359 -6.59084e-05)
(-0.000283996 0.00669199 -0.000195757)
(-0.00154684 0.0106244 -0.000168197)
(-0.00338189 0.0112305 -0.000153455)
(-0.00509584 0.0109612 -0.000137455)
(-0.00678519 0.0104154 -0.000125593)
(-0.00840551 0.0097026 -0.00011645)
(-0.00994324 0.00883644 -0.00010963)
(-0.011388 0.00781177 -0.000105708)
(-0.0127265 0.00661463 -0.00010555)
(-0.0139396 0.00522247 -0.000110288)
(-0.0149973 0.00360399 -0.000121324)
(-0.0158516 0.00172065 -0.000140887)
(-0.0164353 -0.000469096 -0.000171735)
(-0.016633 -0.00299877 -0.000212949)
(-0.016278 -0.00588306 -0.000267717)
(-0.0151636 -0.009063 -0.000332575)
(-0.0130528 -0.0123406 -0.000394109)
(-0.00983575 -0.015195 -0.000424221)
(-0.0053665 -0.0161828 -0.00039086)
(-0.0013726 -0.0111894 -0.000174401)
(-0.000309117 0.00794858 -0.000235899)
(-0.00170547 0.0126172 -0.000209811)
(-0.00373439 0.0133268 -0.00019359)
(-0.00561575 0.0130079 -0.000174257)
(-0.00746696 0.0123782 -0.000158912)
(-0.00924425 0.0115715 -0.000146557)
(-0.0109413 0.0106073 -0.000137176)
(-0.0125562 0.00948196 -0.000131656)
(-0.0140854 0.00817991 -0.00013118)
(-0.0155207 0.00667295 -0.000137318)
(-0.0168437 0.0049179 -0.000152191)
(-0.0180167 0.00285492 -0.00017881)
(-0.0189699 0.000408304 -0.000219726)
(-0.0195831 -0.00249817 -0.000284398)
(-0.0196495 -0.0059505 -0.000371729)
(-0.018859 -0.00995203 -0.00048242)
(-0.0168151 -0.0143305 -0.000601136)
(-0.0131621 -0.0184573 -0.000687255)
(-0.00762945 -0.0203085 -0.000672083)
(-0.00213975 -0.0145668 -0.000408287)
(-0.000342967 0.00937779 -0.000289801)
(-0.00190209 0.0148745 -0.000266407)
(-0.00415668 0.0156847 -0.000247445)
(-0.00622207 0.0152953 -0.000222326)
(-0.00824377 0.0145633 -0.000200806)
(-0.0101803 0.0136518 -0.000182682)
(-0.0120354 0.0125885 -0.000168544)
(-0.0138182 0.0113736 -0.000159695)
(-0.0155385 0.00999263 -0.000157686)
(-0.0172049 0.00841471 -0.000164595)
(-0.018819 0.00658719 -0.000183427)
(-0.0203653 0.00442907 -0.00021832)
(-0.0217929 0.00182529 -0.000273959)
(-0.0229982 -0.00137467 -0.000371644)
(-0.023749 -0.00534275 -0.000508479)
(-0.0236307 -0.0102303 -0.000695067)
(-0.0220351 -0.0159898 -0.000919614)
(-0.018161 -0.0219558 -0.00112883)
(-0.0115039 -0.0253275 -0.00118931)
(-0.0036403 -0.0193346 -0.000951868)
(-0.000394395 0.0110353 -0.00036463)
(-0.00215941 0.0174616 -0.000345222)
(-0.00467791 0.0183536 -0.000320889)
(-0.00694162 0.0178548 -0.000285446)
(-0.00913537 0.0169869 -0.000252971)
(-0.0112233 0.0159477 -0.000224683)
(-0.0132221 0.0147757 -0.000202097)
(-0.0151547 0.0134777 -0.000187005)
(-0.0170472 0.0120442 -0.00018131)
(-0.0189295 0.0104477 -0.0001876)
(-0.0208331 0.00863421 -0.000210025)
(-0.0227831 0.0065108 -0.000255113)
(-0.0247791 0.00392722 -0.000333342)
(-0.0267598 0.000651819 -0.000460562)
(-0.0285314 -0.00362774 -0.000668431)
(-0.0296378 -0.00931252 -0.00097215)
(-0.0292324 -0.0166619 -0.00137995)
(-0.0258002 -0.0251652 -0.00183608)
(-0.0184772 -0.0311188 -0.00213883)
(-0.00676911 -0.0265239 -0.0022382)
(-0.000484122 0.013017 -0.000473586)
(-0.00252321 0.0204764 -0.000458777)
(-0.00535041 0.0213975 -0.000423288)
(-0.00782144 0.0207194 -0.000368785)
(-0.0101777 0.0196585 -0.000316776)
(-0.0123952 0.0184505 -0.000270817)
(-0.0145071 0.0171453 -0.000233692)
(-0.0165512 0.0157586 -0.000207652)
(-0.01857 0.0142908 -0.000194691)
(-0.0206166 0.0127258 -0.000197521)
(-0.0227577 0.0110222 -0.000221011)
(-0.0250746 0.00909315 -0.000273755)
(-0.0276554 0.00677367 -0.000370239)
(-0.030562 0.00376775 -0.000532898)
(-0.0337535 -0.000409278 -0.000829316)
(-0.0368771 -0.00646087 -0.00127679)
(-0.038952 -0.0152403 -0.00193869)
(-0.0374979 -0.0268517 -0.00279242)
(-0.0313382 -0.0370432 -0.00368448)
(-0.0135264 -0.0377969 -0.00506394)
(-0.000659636 0.0154514 -0.000641982)
(-0.00309053 0.0240525 -0.000630019)
(-0.00627097 0.024911 -0.000573875)
(-0.00894127 0.0239449 -0.000483606)
(-0.0114312 0.0225912 -0.000394582)
(-0.0137376 0.0211347 -0.000316116)
(-0.0159124 0.0196432 -0.00025349)
(-0.0180067 0.0181405 -0.00020889)
(-0.0200764 0.0166386 -0.000183316)
(-0.0221937 0.0151425 -0.000178556)
(-0.0244606 0.0136462 -0.000199511)
(-0.0270258 0.0121125 -0.000256952)
(-0.0300988 0.0104286 -0.000369206)
(-0.0339424 0.00830703 -0.000563456)
(-0.0388089 0.0051438 -0.000859812)
(-0.0448004 -0.000190125 -0.00133049)
(-0.0512482 -0.00947293 -0.00215591)
(-0.0547014 -0.0247038 -0.00335565)
(-0.0534161 -0.0417724 -0.00485049)
(-0.0263863 -0.0567293 -0.00900665)
(-0.000978975 0.0188525 -0.000923355)
(-0.00395659 0.0282291 -0.000876463)
(-0.00756024 0.0286987 -0.000766456)
(-0.0104233 0.0271859 -0.000602112)
(-0.0130086 0.025458 -0.0004543)
(-0.0153352 0.0237507 -0.000329532)
(-0.0174881 0.0220856 -0.000231329)
(-0.019538 0.0204661 -0.000160061)
(-0.0215447 0.0189147 -0.000115113)
(-0.0235786 0.0174716 -9.63937e-05)
(-0.0257476 0.0161919 -0.000104041)
(-0.0282379 0.0151206 -0.000140865)
(-0.0313849 0.014271 -0.000211185)
(-0.035744 0.0134958 -0.000318072)
(-0.0421595 0.0122754 -0.000444518)
(-0.0516877 0.00909957 -0.000545545)
(-0.0650416 0.0012045 -0.000622656)
(-0.077048 -0.0178349 -0.00059774)
(-0.0849478 -0.0470992 -0.000257955)
(-0.0438272 -0.0944057 -0.00879769)
(-0.00219777 0.0224732 -0.00142727)
(-0.00629521 0.034384 -0.00146388)
(-0.00975789 0.0344036 -0.00122442)
(-0.0124977 0.0323592 -0.000919912)
(-0.0148777 0.0298333 -0.000615535)
(-0.0170743 0.0273498 -0.0003601)
(-0.0191319 0.0250432 -0.000164364)
(-0.021079 0.0229571 -2.69367e-05)
(-0.0229342 0.0211305 6.07756e-05)
(-0.0247374 0.0196125 0.000103093)
(-0.026585 0.0185159 0.000108161)
(-0.0286617 0.0179972 8.87001e-05)
(-0.0313517 0.0183143 8.15569e-05)
(-0.0354028 0.0196479 0.000181277)
(-0.0423289 0.0218421 0.000647848)
(-0.0542009 0.0229713 0.00209193)
(-0.0747099 0.0185973 0.00537612)
(-0.0962283 -0.00980652 0.010858)
(-0.117164 -0.0684391 0.015647)
(-0.0544996 -0.170272 -0.00308235)
(-0.00155919 0.0339483 -0.00243229)
(-0.00642036 0.0384197 -0.00186921)
(-0.0120823 0.0367564 -0.00144902)
(-0.0151557 0.0329569 -0.000800481)
(-0.0178224 0.0299983 -0.000319864)
(-0.0197535 0.0274896 5.06977e-05)
(-0.0212926 0.0253152 0.000304894)
(-0.0226085 0.0233614 0.000466033)
(-0.023771 0.0216371 0.0005574)
(-0.0247897 0.0201752 0.000592843)
(-0.0256772 0.0191687 0.000596276)
(-0.0264632 0.0188245 0.00060854)
(-0.0274093 0.0196883 0.000748937)
(-0.0291864 0.0221328 0.00131444)
(-0.0338929 0.0268243 0.00311351)
(-0.0438638 0.0300965 0.00774719)
(-0.0708634 0.0263896 0.0174643)
(-0.0999902 -0.0217883 0.0283187)
(-0.135041 -0.125903 0.0295252)
(-0.0474939 -0.274446 -0.0100989)
(-0.0116656 0.0324845 -0.00357315)
(-0.0216212 0.055021 -0.00377356)
(-0.0179897 0.0503489 -0.00286751)
(-0.0194729 0.0451364 -0.00171147)
(-0.01888 0.0391419 -0.000589477)
(-0.01832 0.033999 0.000235099)
(-0.0177526 0.0296929 0.000790713)
(-0.017264 0.0261235 0.0011235)
(-0.0168233 0.0232353 0.00129386)
(-0.0162832 0.0209057 0.00132417)
(-0.0156582 0.0192893 0.00128145)
(-0.0146648 0.0185268 0.00121171)
(-0.0135814 0.0192672 0.00134787)
(-0.0119383 0.022073 0.00209903)
(-0.0129777 0.028487 0.00481327)
(-0.0131182 0.0335702 0.0111469)
(-0.0343589 0.0294246 0.0243037)
(-0.0495782 -0.0409534 0.035759)
(-0.106444 -0.185305 0.0242499)
(-0.0242356 -0.349768 -0.0376061)
(-0.0463146 0.0909374 -0.0107415)
(-0.0307033 0.0454058 -0.00599796)
(-0.0224963 0.0390143 -0.00330215)
(-0.00649749 0.0318866 -0.000682)
(0.00636114 0.0256164 0.00107933)
(0.0181711 0.0214242 0.00218347)
(0.0277298 0.0185798 0.0028624)
(0.0356592 0.0163271 0.00318389)
(0.0419336 0.0146274 0.00328133)
(0.0474797 0.0131099 0.00313676)
(0.0518916 0.0122136 0.00284866)
(0.0568549 0.011413 0.00245522)
(0.0610797 0.0116622 0.00211698)
(0.0688509 0.0117568 0.00194106)
(0.072578 0.0129832 0.00351619)
(0.0923282 0.0101408 0.00646809)
(0.0808171 -0.00351686 0.0154615)
(0.105773 -0.0714069 0.0277604)
(-0.00177383 -0.218536 0.00562662)
(0.0243208 -0.355993 -0.058368)
(0.117729 0.111641 -0.0110713)
(0.145003 0.0599071 -0.0110677)
(0.21772 0.0400166 -0.010169)
(0.261955 0.0271817 -0.00832742)
(0.294386 0.0186598 -0.00626257)
(0.320067 0.0129763 -0.00444635)
(0.339567 0.00943988 -0.00274491)
(0.355397 0.00708737 -0.00146899)
(0.366302 0.00567039 -0.000201656)
(0.376828 0.00468274 0.000504103)
(0.381857 0.0040233 0.0011519)
(0.391199 0.0038582 0.00136728)
(0.390978 0.00314321 0.00123049)
(0.404775 0.00378603 0.00172773)
(0.395044 0.0017154 0.000593747)
(0.420641 0.00111674 0.00301151)
(0.382133 -0.00724413 0.00122431)
(0.408365 -0.0258058 0.00337604)
(0.250167 -0.0675742 -0.00430898)
(0.167656 -0.137547 -0.070105)
(-0.00014218 0.000147594 -3.73204e-05)
(-0.000855709 0.000343014 5.98865e-06)
(-0.00193011 0.000380519 2.10367e-05)
(-0.00292847 0.000373711 2.89082e-05)
(-0.00389095 0.000354403 2.94733e-05)
(-0.00478347 0.000327956 2.52507e-05)
(-0.0055842 0.00029418 1.7626e-05)
(-0.00627214 0.000252296 7.16749e-06)
(-0.00682505 0.000201346 -6.17292e-06)
(-0.00721983 0.000140962 -2.26051e-05)
(-0.00743359 7.06757e-05 -4.15466e-05)
(-0.00744501 -8.7612e-06 -6.2777e-05)
(-0.00723493 -9.66833e-05 -8.57149e-05)
(-0.00678952 -0.000190175 -0.000109265)
(-0.00610317 -0.00028531 -0.000131773)
(-0.00518091 -0.00037675 -0.000150735)
(-0.00404456 -0.000456628 -0.000161975)
(-0.00275488 -0.000509658 -0.000159454)
(-0.00129002 -0.000489042 -0.000139426)
(-0.000248344 -0.000241576 -5.7393e-05)
(-0.000349158 0.000886171 -0.000110829)
(-0.0016466 0.00163254 -7.21702e-05)
(-0.00344492 0.00176351 -5.35316e-05)
(-0.00512321 0.00171513 -3.88016e-05)
(-0.0067258 0.00160759 -3.08649e-05)
(-0.00819647 0.00146322 -2.72913e-05)
(-0.00949726 0.00128404 -2.67173e-05)
(-0.0105942 0.00106936 -2.89145e-05)
(-0.0114534 0.000818283 -3.40141e-05)
(-0.0120416 0.000530973 -4.22292e-05)
(-0.0123271 0.000208169 -5.36796e-05)
(-0.012282 -0.000147529 -6.84438e-05)
(-0.0118821 -0.000528384 -8.51887e-05)
(-0.0111112 -0.00092367 -0.000103434)
(-0.00996595 -0.00131807 -0.00012139)
(-0.00845858 -0.00169064 -0.000136136)
(-0.00662636 -0.00201123 -0.000142601)
(-0.00455844 -0.00222125 -0.000133992)
(-0.00223584 -0.00214869 -0.000107397)
(-0.000494741 -0.00122822 -1.34336e-05)
(-0.000409685 0.00203913 -0.000144373)
(-0.00189408 0.00349809 -0.000108849)
(-0.00392894 0.00373906 -8.8865e-05)
(-0.00582295 0.00362145 -7.10745e-05)
(-0.00762795 0.00337943 -5.97712e-05)
(-0.00928207 0.00305776 -5.25739e-05)
(-0.010744 0.00266274 -4.82085e-05)
(-0.0119771 0.00219505 -4.66179e-05)
(-0.0129446 0.00165513 -4.80916e-05)
(-0.0136111 0.00104455 -5.29651e-05)
(-0.0139429 0.000366898 -6.13983e-05)
(-0.0139065 -0.000371209 -7.357e-05)
(-0.013473 -0.00115612 -8.87713e-05)
(-0.0126232 -0.00196651 -0.000106231)
(-0.0113494 -0.00277186 -0.00012409)
(-0.0096598 -0.00353059 -0.000139076)
(-0.00759137 -0.00418315 -0.000145395)
(-0.00524181 -0.00461358 -0.000135265)
(-0.00258702 -0.00448772 -0.000105788)
(-0.000579285 -0.00270419 -3.39712e-06)
(-0.00043435 0.00320448 -0.000173283)
(-0.00201586 0.00540231 -0.000141039)
(-0.0041845 0.00575337 -0.000120262)
(-0.00620069 0.00556443 -0.000100276)
(-0.00812505 0.00518795 -8.65393e-05)
(-0.00989341 0.00469082 -7.67326e-05)
(-0.0114641 0.00408304 -6.96702e-05)
(-0.0128 0.00336622 -6.54456e-05)
(-0.0138634 0.00254126 -6.45033e-05)
(-0.0146167 0.00161016 -6.7344e-05)
(-0.0150228 0.000577824 -7.44108e-05)
(-0.0150444 -0.00054537 -8.62923e-05)
(-0.0146441 -0.00174344 -0.000101642)
(-0.0137912 -0.0029863 -0.000120188)
(-0.0124671 -0.0042294 -0.000139901)
(-0.0106696 -0.00540975 -0.000157189)
(-0.00842801 -0.00643452 -0.000165268)
(-0.00584609 -0.00712233 -0.000154779)
(-0.00289428 -0.00695859 -0.000122271)
(-0.000648338 -0.00425247 -7.05355e-06)
(-0.000458997 0.00445093 -0.000201254)
(-0.00214331 0.00744159 -0.000171618)
(-0.00445811 0.00790998 -0.00015008)
(-0.00661016 0.00764705 -0.00012827)
(-0.00866964 0.00713164 -0.000112729)
(-0.0105705 0.00645419 -0.000101173)
(-0.0122715 0.00562859 -9.24926e-05)
(-0.0137358 0.00465705 -8.69209e-05)
(-0.0149253 0.00354014 -8.50654e-05)
(-0.0158003 0.00227896 -8.76245e-05)
(-0.0163192 0.000877394 -9.52822e-05)
(-0.0164379 -0.000654493 -0.000108792)
(-0.0161083 -0.00229826 -0.000126893)
(-0.015284 -0.00401855 -0.000149589)
(-0.0139275 -0.00575873 -0.000174611)
(-0.0120164 -0.00743307 -0.00019767)
(-0.00956373 -0.00890846 -0.00021048)
(-0.00667784 -0.00992123 -0.000201163)
(-0.00332359 -0.00974251 -0.000164643)
(-0.000746909 -0.00600447 -2.77718e-05)
(-0.000491163 0.00578838 -0.000232892)
(-0.00230595 0.00963716 -0.000205635)
(-0.00480535 0.0102327 -0.000183221)
(-0.00712916 0.00989348 -0.000159516)
(-0.00935906 0.00923535 -0.000142244)
(-0.011427 0.00837433 -0.000129163)
(-0.0132932 0.00732842 -0.000119263)
(-0.014922 0.00610009 -0.000112947)
(-0.0162755 0.00468851 -0.000111011)
(-0.017313 0.00309195 -0.000114379)
(-0.0179883 0.0013104 -0.00012397)
(-0.0182499 -0.000650404 -0.000140555)
(-0.0180353 -0.00277587 -0.00016492)
(-0.0172762 -0.00502947 -0.000195431)
(-0.0159075 -0.00734576 -0.000230188)
(-0.013874 -0.00961614 -0.000264093)
(-0.0111579 -0.011659 -0.000286515)
(-0.0078644 -0.0131038 -0.000281548)
(-0.0039495 -0.0129531 -0.000240575)
(-0.000895905 -0.00804009 -7.10195e-05)
(-0.000532293 0.00724093 -0.000271944)
(-0.00251065 0.0120277 -0.000247571)
(-0.00523932 0.0127617 -0.00022403)
(-0.00777469 0.0123423 -0.000197887)
(-0.0102129 0.0115361 -0.000178356)
(-0.0124842 0.0104874 -0.000163301)
(-0.0145512 0.00921914 -0.000151899)
(-0.0163813 0.00773372 -0.000144792)
(-0.0179391 0.00602778 -0.000143053)
(-0.0191839 0.00409439 -0.000147945)
(-0.0200668 0.00192587 -0.000160773)
(-0.020529 -0.00048165 -0.00018276)
(-0.020492 -0.00312509 -0.000216607)
(-0.0198589 -0.00597567 -0.000259702)
(-0.0185256 -0.0089677 -0.000310788)
(-0.0163854 -0.0119737 -0.000363842)
(-0.0133642 -0.0147557 -0.00040477)
(-0.00954375 -0.0168019 -0.000411055)
(-0.00486145 -0.0167589 -0.000366656)
(-0.00112264 -0.0104881 -0.000149)
(-0.00058322 0.00883745 -0.00032173)
(-0.00276166 0.0146593 -0.000301394)
(-0.00576781 0.0155432 -0.000276231)
(-0.00855546 0.0150361 -0.000246554)
(-0.0112393 0.0140731 -0.000223561)
(-0.0137481 0.0128308 -0.000205377)
(-0.0160492 0.0113378 -0.000191509)
(-0.0181157 0.00959709 -0.000182961)
(-0.0199174 0.0076018 -0.000181202)
(-0.0214175 0.0053374 -0.00018801)
(-0.022567 0.00278366 -0.000205316)
(-0.0233034 -8.13206e-05 -0.000235097)
(-0.0235321 -0.00327026 -0.000282969)
(-0.0231228 -0.00678295 -0.000345362)
(-0.0219191 -0.0105684 -0.00042297)
(-0.0197368 -0.0144934 -0.000509132)
(-0.0164044 -0.0182614 -0.000585097)
(-0.0119313 -0.0211784 -0.000617443)
(-0.00621668 -0.0213911 -0.000574634)
(-0.0014823 -0.0135477 -0.000288882)
(-0.000645639 0.0106105 -0.000386275)
(-0.00306559 0.0175828 -0.000371828)
(-0.00640183 0.0186258 -0.000344112)
(-0.00948294 0.0180177 -0.000308958)
(-0.0124476 0.0168838 -0.000280326)
(-0.015224 0.0154381 -0.000256867)
(-0.0177874 0.0137174 -0.000238642)
(-0.02012 0.0117259 -0.000227187)
(-0.0222017 0.00945334 -0.000224522)
(-0.0240051 0.00687551 -0.000233152)
(-0.0254886 0.00395519 -0.000255975)
(-0.0265861 0.000644794 -0.000296808)
(-0.0271972 -0.00310068 -0.000363967)
(-0.0271626 -0.0073281 -0.000454766)
(-0.026255 -0.012032 -0.000574454)
(-0.0241822 -0.0171046 -0.000716912)
(-0.0206139 -0.0222064 -0.000858255)
(-0.0153851 -0.0264213 -0.000948462)
(-0.00831731 -0.0271684 -0.000922438)
(-0.00209563 -0.0175521 -0.000548293)
(-0.000723062 0.0125995 -0.000471312)
(-0.00343417 0.020857 -0.000465402)
(-0.0071595 0.0220624 -0.000433374)
(-0.0105755 0.0213296 -0.000389389)
(-0.0138525 0.0200019 -0.000351371)
(-0.0169198 0.0183372 -0.000318946)
(-0.0197645 0.0163835 -0.000293072)
(-0.0223831 0.0141485 -0.000276018)
(-0.0247715 0.0116192 -0.000270522)
(-0.0269195 0.00876181 -0.000280044)
(-0.0288018 0.00551915 -0.000309129)
(-0.0303635 0.00181106 -0.000364251)
(-0.0315099 -0.00246227 -0.000451881)
(-0.0320619 -0.00741991 -0.000586616)
(-0.0317229 -0.0131482 -0.000771408)
(-0.0300592 -0.0196282 -0.00100723)
(-0.0265016 -0.0265356 -0.00126819)
(-0.0205202 -0.0327164 -0.00148311)
(-0.011788 -0.0345374 -0.00151643)
(-0.00324481 -0.0231224 -0.00105709)
(-0.000822498 0.0148559 -0.000585685)
(-0.00388824 0.024553 -0.000591791)
(-0.00807108 0.0259116 -0.000552125)
(-0.0118632 0.025014 -0.00049351)
(-0.0154777 0.0234555 -0.000439755)
(-0.0188486 0.0215462 -0.000392214)
(-0.0219799 0.0193493 -0.000353229)
(-0.0248882 0.0168789 -0.000326012)
(-0.0275926 0.0141224 -0.000314083)
(-0.0301097 0.011038 -0.000321914)
(-0.0324443 0.00754908 -0.000355795)
(-0.0345729 0.0035362 -0.000424733)
(-0.0364345 -0.0011707 -0.000540794)
(-0.0378596 -0.00678431 -0.000733502)
(-0.0385048 -0.0135637 -0.00101181)
(-0.0377914 -0.0216875 -0.00139467)
(-0.0348297 -0.030991 -0.00186623)
(-0.0284322 -0.0401387 -0.00233716)
(-0.0179982 -0.0440715 -0.00255555)
(-0.00562719 -0.0315298 -0.00213136)
(-0.000957838 0.0174526 -0.000743811)
(-0.00446472 0.0287602 -0.000765916)
(-0.00918673 0.0302392 -0.000712329)
(-0.0133942 0.0291103 -0.000628975)
(-0.0173615 0.027263 -0.000548747)
(-0.0210326 0.0250684 -0.000475981)
(-0.0244358 0.0226088 -0.000415097)
(-0.027614 0.0199088 -0.000370416)
(-0.0306166 0.0169607 -0.000346109)
(-0.0334972 0.0137211 -0.000347483)
(-0.0363085 0.0101013 -0.000382643)
(-0.0390892 0.00594883 -0.000464042)
(-0.0418379 0.00102283 -0.000610454)
(-0.0444712 -0.00502098 -0.000860466)
(-0.0466945 -0.0127023 -0.00126212)
(-0.0478448 -0.0225529 -0.00185705)
(-0.0466948 -0.0348508 -0.00267191)
(-0.0410592 -0.0483107 -0.00362442)
(-0.0299001 -0.0562937 -0.0043562)
(-0.0109895 -0.0456515 -0.00451336)
(-0.00115818 0.0205061 -0.000970669)
(-0.00523013 0.0336018 -0.00101218)
(-0.0105878 0.0351174 -0.00093221)
(-0.0152442 0.0336487 -0.000805995)
(-0.0195631 0.0314266 -0.000681125)
(-0.0235088 0.0288859 -0.00056669)
(-0.0271423 0.02613 -0.000470033)
(-0.0305387 0.0231976 -0.000396611)
(-0.0337824 0.0200923 -0.000350668)
(-0.036971 0.0167793 -0.000337398)
(-0.0402183 0.0131725 -0.00036548)
(-0.0436535 0.00910488 -0.000450157)
(-0.0474088 0.00428251 -0.000618704)
(-0.0516057 -0.00178842 -0.000917849)
(-0.0561552 -0.0098523 -0.00144551)
(-0.0605592 -0.0210103 -0.00227159)
(-0.0634397 -0.0364844 -0.00352107)
(-0.0613935 -0.0557202 -0.00518578)
(-0.0527624 -0.0712238 -0.00702486)
(-0.0228336 -0.0712225 -0.00934291)
(-0.00148745 0.0241411 -0.00131136)
(-0.00632622 0.0392527 -0.00137404)
(-0.0124203 0.0406872 -0.00124805)
(-0.0175295 0.0387287 -0.00104673)
(-0.0221671 0.0359815 -0.000842717)
(-0.0263317 0.0329767 -0.000656306)
(-0.0301225 0.0298527 -0.000500315)
(-0.0336485 0.026663 -0.000380766)
(-0.0370298 0.0234239 -0.000300004)
(-0.04041 0.0201213 -0.000260833)
(-0.0439739 0.016705 -0.000270116)
(-0.047968 0.0130537 -0.00034334)
(-0.0527195 0.00890447 -0.000507512)
(-0.0586148 0.00370449 -0.00080356)
(-0.0660855 -0.00355103 -0.00128635)
(-0.0754536 -0.0146853 -0.00209205)
(-0.0856301 -0.0323196 -0.0034674)
(-0.0914441 -0.0588469 -0.00545171)
(-0.0895032 -0.0883596 -0.00815145)
(-0.0408427 -0.120053 -0.0150691)
(-0.00195738 0.0289754 -0.00184862)
(-0.00774013 0.0455047 -0.00187193)
(-0.0148038 0.046426 -0.00164542)
(-0.0204145 0.0436396 -0.00130335)
(-0.0253464 0.0403302 -0.0009811)
(-0.0296275 0.0369251 -0.000694795)
(-0.033439 0.033505 -0.000456667)
(-0.0369436 0.0301053 -0.000271795)
(-0.0402898 0.0267639 -0.000140013)
(-0.0436405 0.0235104 -5.92497e-05)
(-0.0472142 0.0203675 -2.47723e-05)
(-0.0513487 0.0173124 -3.23997e-05)
(-0.0566027 0.0142355 -7.76082e-05)
(-0.0638459 0.0107443 -0.000150589)
(-0.0743499 0.00583575 -0.000204226)
(-0.0895822 -0.00287906 -8.6179e-05)
(-0.109314 -0.0200315 0.000380626)
(-0.123516 -0.0559428 0.00147758)
(-0.127743 -0.113224 0.00197141)
(-0.0476047 -0.206935 -0.0132929)
(-0.00389515 0.0336042 -0.00274726)
(-0.0116198 0.0549382 -0.00294358)
(-0.0185479 0.0552247 -0.00249851)
(-0.0241611 0.0516584 -0.00191428)
(-0.0289227 0.0470683 -0.00130957)
(-0.0331338 0.0424589 -0.000778832)
(-0.0368768 0.0380684 -0.000348833)
(-0.0402687 0.0339894 -2.60198e-05)
(-0.0434318 0.0302759 0.000199317)
(-0.0465243 0.0269689 0.00034113)
(-0.0497788 0.0241738 0.00042446)
(-0.0535587 0.0220346 0.000490774)
(-0.0585097 0.0207976 0.000633769)
(-0.0657439 0.0205411 0.00106579)
(-0.0771235 0.0207186 0.00232736)
(-0.094484 0.0178793 0.00560797)
(-0.11841 0.00342485 0.012592)
(-0.132037 -0.0508411 0.0233837)
(-0.141382 -0.152775 0.0289045)
(-0.0272109 -0.312587 -0.00646671)
(-0.00220688 0.0482829 -0.00442977)
(-0.0107452 0.0590634 -0.00377005)
(-0.0223855 0.0574359 -0.00301074)
(-0.028728 0.0519001 -0.00187281)
(-0.0342795 0.0473173 -0.000968497)
(-0.0382345 0.0430433 -0.000213235)
(-0.0412572 0.039045 0.000364998)
(-0.0436778 0.0352674 0.000778854)
(-0.0457277 0.0317801 0.00105326)
(-0.0475521 0.0286408 0.00121985)
(-0.0492969 0.0261109 0.00133994)
(-0.0511325 0.0244406 0.00151985)
(-0.0535103 0.0243544 0.00202254)
(-0.0571692 0.02625 0.00345669)
(-0.0639235 0.0305312 0.00731734)
(-0.0739361 0.0309747 0.0161929)
(-0.0956474 0.0181096 0.0333792)
(-0.0996 -0.0534402 0.0521429)
(-0.119016 -0.195938 0.0508353)
(0.00435169 -0.394502 -0.0161219)
(-0.0115811 0.0408578 -0.00610425)
(-0.027179 0.0830843 -0.00667838)
(-0.0284843 0.0782632 -0.00536884)
(-0.0358191 0.0710892 -0.00349888)
(-0.0383241 0.0623004 -0.00159819)
(-0.0394225 0.054207 -0.000106169)
(-0.0392585 0.0471415 0.000997425)
(-0.0384327 0.041055 0.00173769)
(-0.0372695 0.0359245 0.00219111)
(-0.0358338 0.0315951 0.0024011)
(-0.0344382 0.0282939 0.00249021)
(-0.0327798 0.0262695 0.00257963)
(-0.0314222 0.0264438 0.00312289)
(-0.0290731 0.0294902 0.00488724)
(-0.0287371 0.0374607 0.0100659)
(-0.0205363 0.0418293 0.0209217)
(-0.0273432 0.0363092 0.0413721)
(-0.000692109 -0.0405403 0.0617406)
(-0.0406685 -0.222316 0.0472439)
(0.045894 -0.433526 -0.0426485)
(-0.0746134 0.104135 -0.0155325)
(-0.0599653 0.0656993 -0.00955926)
(-0.0590365 0.0622002 -0.00572814)
(-0.0388555 0.0534169 -0.00197561)
(-0.0214519 0.0448368 0.000605141)
(-0.00326785 0.0382677 0.00250243)
(0.0132844 0.0332329 0.00386991)
(0.0285505 0.0289044 0.00468818)
(0.0416759 0.025459 0.00513223)
(0.054009 0.0221788 0.00516437)
(0.063971 0.0200017 0.00492215)
(0.0744653 0.0178486 0.00449858)
(0.0821676 0.0175683 0.00413123)
(0.0956016 0.0170631 0.00401479)
(0.0997672 0.0187768 0.00664008)
(0.135034 0.0160906 0.0110325)
(0.127274 -0.00090026 0.0213977)
(0.188257 -0.0516433 0.0414211)
(0.1242 -0.228527 0.0214164)
(0.134831 -0.412487 -0.0636276)
(0.119834 0.140166 -0.0157907)
(0.153331 0.0866618 -0.0162653)
(0.232797 0.0644946 -0.0153329)
(0.287396 0.0491234 -0.0131359)
(0.330088 0.0380528 -0.0105197)
(0.366854 0.0298045 -0.008097)
(0.396443 0.0239389 -0.00559861)
(0.424361 0.0193407 -0.00362303)
(0.443797 0.0159202 -0.00154179)
(0.467067 0.0133327 -9.14189e-05)
(0.477395 0.0107877 0.00106927)
(0.500027 0.00981663 0.00208939)
(0.500773 0.00751488 0.00196051)
(0.528262 0.00770705 0.002944)
(0.516274 0.00560488 0.0023439)
(0.553294 0.00349461 0.00334545)
(0.519079 -0.00293838 0.00483767)
(0.54506 -0.0246368 0.000139167)
(0.421148 -0.0677006 -0.00253827)
(0.298355 -0.143943 -0.0771462)
(-0.000154577 0.000154235 -4.82052e-05)
(-0.000934697 0.000372213 -3.48776e-05)
(-0.00210807 0.000414384 -2.49603e-05)
(-0.00319384 0.000406269 -1.71678e-05)
(-0.00423732 0.000384008 -1.39065e-05)
(-0.00520123 0.000353897 -1.42671e-05)
(-0.00606221 0.000315798 -1.75824e-05)