/*--------------------------------*- C++ -*----------------------------------*\
  =========                 |
  \\      /  F ield         | OpenFOAM: The Open Source CFD Toolbox
   \\    /   O peration     | Website:  https://openfoam.org
    \\  /    A nd           | Version:  10
     \\/     M anipulation  |
\*---------------------------------------------------------------------------*/
FoamFile
{
    format      ascii;
    class       volScalarField;
    location    "6.225";
    object      p;
}
// * * * * * * * * * * * * * * * * * * * * * * * * * * * * * * * * * * * * * //

dimensions      [0 2 -2 0 0 0 0];

internalField   nonuniform List<scalar> 
8000
(
-5.06263e-07
-4.09018e-06
4.12806e-05
0.000123333
0.000248032
0.000416886
0.000631389
0.000892503
0.00120065
0.00155444
0.00195008
0.00238051
0.00283451
0.00329628
0.00374451
0.00415402
0.0044975
0.00474883
0.00490173
0.00491311
3.06259e-06
-1.44388e-06
4.55062e-05
0.000127016
0.000249861
0.000415829
0.00062672
0.00088396
0.00118806
0.00153798
0.00193035
0.00235852
0.00281135
0.00327331
0.0037242
0.00413803
0.00448667
0.00474286
0.0049013
0.00490957
-5.53268e-05
-6.34312e-05
-1.81966e-05
6.03582e-05
0.000179635
0.000341586
0.000548449
0.000802298
0.00110444
0.00145479
0.00185103
0.00228761
0.00275487
0.00323754
0.0037138
0.00415594
0.00453214
0.00480988
0.00498233
0.00498498
-0.000163728
-0.0001745
-0.000131801
-5.7557e-05
5.63496e-05
0.000212211
0.000412962
0.000661666
0.000960892
0.00131212
0.00171486
0.0021654
0.00265533
0.00317007
0.0036884
0.00417884
0.00460356
0.00492061
0.00511901
0.00511743
-0.000328047
-0.000341625
-0.000302637
-0.000234334
-0.000127824
1.96203e-05
0.000211785
0.000452981
0.000747465
0.0010989
0.00150937
0.00197809
0.00249929
0.003059
0.00363816
0.00419972
0.00469802
0.00507707
0.00531774
0.00531233
-0.000548979
-0.000565827
-0.000531826
-0.000471432
-0.000374988
-0.00023932
-5.97265e-05
0.000169495
0.000454603
0.000801978
0.00121724
0.00170369
0.00226017
0.00287822
0.00353254
0.00419098
0.00479534
0.00526877
0.00557614
0.00556901
-0.000826407
-0.000847174
-0.000819596
-0.00076951
-0.00068659
-0.000567347
-0.00040625
-0.000196228
7.1092e-05
0.000405189
0.000816007
0.00131252
0.00190001
0.00257573
0.00332169
0.00410531
0.00485628
0.00547146
0.00588431
0.00588536
-0.00115983
-0.00118528
-0.00116565
-0.00112861
-0.00106338
-0.000966452
-0.000831814
-0.000651338
-0.00041477
-0.000109557
0.000278963
0.000766744
0.00136871
0.00209377
0.00293697
0.00386239
0.00480384
0.00562899
0.00621221
0.00625625
-0.00154844
-0.00157934
-0.00156899
-0.00154774
-0.00150465
-0.0014368
-0.00133832
-0.00120076
-0.00101279
-0.000759549
-0.000422196
2.21865e-05
0.00059953
0.00133491
0.00224323
0.00331533
0.00448761
0.00561182
0.00647163
0.00666007
-0.00199136
-0.00202831
-0.00202792
-0.00202456
-0.00200768
-0.00197568
-0.00192387
-0.00184472
-0.00172741
-0.00155677
-0.00131205
-0.000965527
-0.000481687
0.000182578
0.0010725
0.00221666
0.00360357
0.00511491
0.00642372
0.00701829
-0.00248831
-0.00253146
-0.00254026
-0.00255526
-0.00256706
-0.00257643
-0.00258113
-0.00257619
-0.00255363
-0.00250134
-0.00240182
-0.00222956
-0.00194744
-0.00150291
-0.000825193
0.000179766
0.0016134
0.00352034
0.00549624
0.00704744
-0.00304098
-0.00308939
-0.00310389
-0.00313466
-0.00317437
-0.00322745
-0.00329547
-0.00337789
-0.00347245
-0.00357452
-0.00367673
-0.0037672
-0.00382719
-0.00382478
-0.00370231
-0.00333873
-0.00244831
-0.00049188
0.0024345
0.00600547
-0.00365625
-0.00370678
-0.00371893
-0.0037579
-0.00381912
-0.00391252
-0.00404464
-0.00422087
-0.00444751
-0.00473247
-0.00508687
-0.0055268
-0.00607611
-0.00676212
-0.00759882
-0.00845661
-0.00883193
-0.00678291
-0.00194634
0.00431706
-0.0043476
-0.00438827
-0.00437974
-0.00441056
-0.00448054
-0.00460501
-0.00479415
-0.00506005
-0.00541888
-0.00589357
-0.00651986
-0.00735121
-0.00847643
-0.0100005
-0.0120111
-0.0141801
-0.0155341
-0.0125014
-0.00566725
0.00251401
-0.00515291
-0.00517932
-0.00513301
-0.00513823
-0.00519104
-0.00531776
-0.00553598
-0.00586515
-0.00633144
-0.00697151
-0.00784637
-0.00903629
-0.0106997
-0.0129586
-0.016012
-0.0191572
-0.0218916
-0.0191138
-0.0125662
-0.000677714
-0.00623885
-0.00603902
-0.00586475
-0.00575725
-0.00576042
-0.00588384
-0.00613343
-0.00652091
-0.00707419
-0.00783444
-0.00888559
-0.0103154
-0.0123688
-0.0151388
-0.0190195
-0.0230775
-0.028711
-0.0282394
-0.0226574
-0.00397741
-0.00717654
-0.00728769
-0.00697707
-0.00684856
-0.00673709
-0.00674679
-0.00689914
-0.0072199
-0.00774602
-0.00851396
-0.00961008
-0.0111394
-0.0133616
-0.0163027
-0.0207092
-0.0253768
-0.0336176
-0.0331994
-0.0266455
0.000879291
-0.0110703
-0.00824776
-0.00761047
-0.00691774
-0.00667633
-0.00668234
-0.00689929
-0.00728878
-0.0078789
-0.0086816
-0.00981857
-0.0113361
-0.0135187
-0.0163215
-0.0204535
-0.0245514
-0.0308893
-0.0283107
-0.0186953
0.0219932
-0.0107252
-0.0116261
-0.0101653
-0.00967268
-0.00893941
-0.00847377
-0.0082575
-0.00829336
-0.00861798
-0.00921641
-0.0101969
-0.0115475
-0.0135885
-0.0161066
-0.0199442
-0.0230138
-0.0270943
-0.0181647
0.000960843
0.0671491
-0.0353362
-0.00994086
-0.0083096
-0.00685167
-0.00609847
-0.00598511
-0.00624578
-0.00666268
-0.00732147
-0.00812673
-0.00935891
-0.0107975
-0.0129486
-0.0150817
-0.0176768
-0.0171969
-0.0128854
0.012237
0.0602447
0.169238
4.41742e-06
-1.02074e-05
3.29926e-05
0.000114068
0.000238924
0.000408461
0.00062402
0.000886993
0.00119751
0.00155435
0.00195388
0.00238915
0.00284893
0.00331714
0.00377232
0.0041886
0.00453721
0.00478968
0.00494004
0.00493484
1.7893e-05
3.26522e-06
4.98513e-05
0.000130772
0.000253498
0.000419456
0.000630383
0.000887802
0.00119229
0.00154294
0.00193654
0.00236663
0.00282202
0.00328811
0.00374329
0.00416155
0.00451349
0.00476995
0.00492682
0.00491694
-3.67358e-05
-5.68599e-05
-1.18028e-05
6.61689e-05
0.000185269
0.000347091
0.000553823
0.000807634
0.00110994
0.00146084
0.00185821
0.0022967
0.00276704
0.00325392
0.00373526
0.00418285
0.00456328
0.00484159
0.00501222
0.0049925
-0.000142148
-0.000166123
-0.000123472
-4.98033e-05
6.39246e-05
0.000219638
0.000420213
0.000668795
0.000968108
0.00131984
0.00172378
0.00217646
0.00266957
0.0031902
0.00371504
0.00421265
0.00464311
0.00496109
0.00515727
0.00512869
-0.000304565
-0.000332217
-0.000293204
-0.000225435
-0.000119034
2.83558e-05
0.000220483
0.000461745
0.000756573
0.00110888
0.00152114
0.00199301
0.00251959
0.00308676
0.00367429
0.00424595
0.00475277
0.00513403
0.00537197
0.00533335
-0.000523977
-0.000555697
-0.0005216
-0.00046166
-0.000365196
-0.000229413
-4.96107e-05
0.000180037
0.000465977
0.000814902
0.00123288
0.0017238
0.00228685
0.00291342
0.00358302
0.00425704
0.00487512
0.0053541
0.00565895
0.00560982
-0.000799867
-0.000836407
-0.000808639
-0.000758923
-0.000675833
-0.000556264
-0.000394658
-0.000183768
8.5023e-05
0.000421578
0.000836439
0.00133948
0.00193697
0.0026262
0.00339407
0.00420138
0.00497605
0.00560515
0.00601959
0.00596798
-0.0011316
-0.00117396
-0.00115404
-0.0011173
-0.00105175
-0.000954294
-0.000818842
-0.000637034
-0.000398298
-8.95825e-05
0.000304577
0.000801407
0.00141747
0.00216351
0.0030331
0.00400109
0.00498806
0.00584854
0.00644789
0.00643432
-0.00151829
-0.00156753
-0.00155683
-0.00153585
-0.00149238
-0.00142385
-0.0013243
-0.00118501
-0.000994215
-0.000736446
-0.000391803
6.4391e-05
0.000660961
0.00142612
0.00237518
0.00351298
0.00477061
0.00598592
0.00691335
0.00708553
-0.00195892
-0.00201606
-0.00201533
-0.00201231
-0.00199509
-0.00196242
-0.00190945
-0.00182829
-0.00170768
-0.00153167
-0.00127809
-0.000916821
-0.000408143
0.000297517
0.00125354
0.00248634
0.00402379
0.00575333
0.00729924
0.00806449
-0.00245297
-0.00251874
-0.00252727
-0.00254285
-0.00255457
-0.0025635
-0.00256717
-0.00256022
-0.00253418
-0.00247617
-0.00236686
-0.00217792
-0.00186749
-0.00137529
-0.000619631
0.00050159
0.00212963
0.00447171
0.00706942
0.00925285
-0.00300147
-0.00307576
-0.00309004
-0.00312187
-0.00316207
-0.00321533
-0.00328283
-0.00336364
-0.00345493
-0.00355146
-0.00364403
-0.00371846
-0.00375408
-0.00372045
-0.00357239
-0.00319578
-0.00219919
0.00015419
0.00391708
0.0088084
-0.00361033
-0.00369226
-0.00370485
-0.00374597
-0.00380847
-0.00390256
-0.00403461
-0.00420989
-0.00443399
-0.00471443
-0.00506164
-0.00549139
-0.00603347
-0.00674638
-0.00772733
-0.00894265
-0.00994708
-0.00810233
-0.00305795
0.00515222
-0.00428724
-0.00436518
-0.00435594
-0.00439001
-0.00446394
-0.00459207
-0.00478382
-0.00505048
-0.00540802
-0.00587937
-0.00650122
-0.00733241
-0.00848117
-0.0101276
-0.0125776
-0.0158122
-0.0191237
-0.017931
-0.0122363
-0.00122706
-0.00507033
-0.00515723
-0.00511182
-0.00512547
-0.00518317
-0.00531321
-0.00553299
-0.00586203
-0.0063259
-0.00696167
-0.00783127
-0.00902832
-0.0107373
-0.0132086
-0.0169265
-0.0217668
-0.0277005
-0.0280733
-0.0238804
-0.00928849
-0.00608633
-0.00595458
-0.00578912
-0.00569416
-0.00571371
-0.00585118
-0.0061108
-0.00650381
-0.00705685
-0.00781258
-0.00885064
-0.0102818
-0.012371
-0.0153114
-0.0199303
-0.0257977
-0.0349109
-0.0374449
-0.0358207
-0.0143773
-0.00684083
-0.00717789
-0.00687537
-0.00680455
-0.0067138
-0.00673832
-0.00689727
-0.00721842
-0.00773544
-0.00848585
-0.00955608
-0.0110417
-0.0133063
-0.0161947
-0.0212335
-0.027148
-0.0373803
-0.0397996
-0.0382706
-0.005647
-0.0105502
-0.00790119
-0.00729996
-0.00665422
-0.00650183
-0.00657483
-0.00683757
-0.00725158
-0.00784339
-0.00861877
-0.00970518
-0.0111257
-0.0132458
-0.0160353
-0.0204465
-0.0253229
-0.0325735
-0.0326803
-0.0253051
0.0224369
-0.00802539
-0.0106255
-0.00955525
-0.0094348
-0.00888361
-0.00852471
-0.00835834
-0.00840494
-0.00871557
-0.00925115
-0.0101341
-0.0113615
-0.0132973
-0.0157553
-0.0199177
-0.023711
-0.0287627
-0.0209953
0.000342469
0.0756051
-0.0330756
-0.00805967
-0.00670919
-0.00581301
-0.00541925
-0.00547925
-0.00586762
-0.00635645
-0.00706551
-0.00785802
-0.00906506
-0.0104271
-0.0125291
-0.0147107
-0.0174011
-0.0173356
-0.0127151
0.0141684
0.07416
0.200506
1.46788e-05
-4.89368e-06
3.72218e-05
0.000117675
0.00024279
0.000413221
0.000630273
0.000895252
0.00120862
0.00156931
0.00197383
0.00241537
0.00288273
0.00335955
0.00382379
0.0042485
0.00460344
0.00485824
0.00500724
0.00499172
3.44557e-05
1.43329e-05
6.05334e-05
0.000140905
0.000263591
0.000429861
0.000641497
0.000900138
0.00120654
0.00155997
0.00195744
0.0023926
0.00285446
0.00332798
0.00379124
0.00421731
0.00457527
0.00483415
0.00499045
0.00497067
-1.64464e-05
-4.3054e-05
1.70864e-06
7.90292e-05
0.000197954
0.000359914
0.000567171
0.000822056
0.0011262
0.00147994
0.00188142
0.00232553
0.00280324
0.00329893
0.00379011
0.00424749
0.00463577
0.00491752
0.00508773
0.00505553
-0.000118285
-0.000149395
-0.000106945
-3.39732e-05
7.95109e-05
0.000235271
0.000436299
0.000685959
0.000987236
0.00134215
0.00175082
0.00221017
0.00271247
0.00324429
0.00378212
0.00429313
0.00473467
0.00505791
0.0052541
0.00520966
-0.000277649
-0.000313024
-0.00027413
-0.000207048
-0.000100848
4.66667e-05
0.000239395
0.000482012
0.000779281
0.00113555
0.00155378
0.0020341
0.00257161
0.00315495
0.00376067
0.00435171
0.00487546
0.00526565
0.00550451
0.00544447
-0.000494083
-0.00053414
-0.000500064
-0.000440753
-0.000344376
-0.000208287
-2.75917e-05
0.00020387
0.000492982
0.000847003
0.00127273
0.00177477
0.00235224
0.0030011
0.00369712
0.00440036
0.0050454
0.00554036
0.00584838
0.00576807
-0.000766701
-0.000812275
-0.000784418
-0.000735259
-0.000652141
-0.000532078
-0.000369258
-0.000156023
0.000116797
0.000459839
0.000884732
0.00140283
0.00202288
0.00273997
0.00354564
0.00439761
0.00521641
0.00587548
0.00629903
0.00619877
-0.00109462
-0.00114681
-0.00112671
-0.00109051
-0.00102489
-0.000926844
-0.000789945
-0.000605335
-0.000361749
-4.51351e-05
0.000361419
0.000877167
0.00152109
0.00230481
0.00323007
0.0042661
0.00532612
0.00624472
0.00687003
0.00677795
-0.00147668
-0.00153672
-0.00152578
-0.00150543
-0.00146201
-0.00139299
-0.001292
-0.0011497
-0.000953533
-0.000686782
-0.000327711
0.000151172
0.000782333
0.00159873
0.00262236
0.00385738
0.00523214
0.00656173
0.00755425
0.00761134
-0.00191152
-0.0019806
-0.00197964
-0.00197753
-0.00196074
-0.001928
-0.00187398
-0.00179012
-0.00166421
-0.00147891
-0.0012099
-0.000823702
-0.000275241
0.000490643
0.00152314
0.00289374
0.00460081
0.00654584
0.00822653
0.00883069
-0.00239803
-0.00247714
-0.00248556
-0.0025026
-0.00251547
-0.00252519
-0.00252876
-0.00252012
-0.00248986
-0.00242373
-0.00230052
-0.00208876
-0.00174159
-0.00119224
-0.000353546
0.000847907
0.00266947
0.00531145
0.00814998
0.0100989
-0.00293618
-0.00302549
-0.00303981
-0.00307399
-0.0031166
-0.00317216
-0.00324122
-0.00332222
-0.00341161
-0.00350307
-0.00358648
-0.00364698
-0.00366455
-0.00361685
-0.00348714
-0.00319195
-0.0022877
0.00032219
0.00445023
0.00927823
-0.00353041
-0.00362998
-0.0036434
-0.00368838
-0.00375503
-0.00385332
-0.00398908
-0.00416722
-0.00439294
-0.00467352
-0.00502021
-0.00545304
-0.00601433
-0.00680425
-0.00802843
-0.00981333
-0.0111649
-0.0092313
-0.00390036
0.00423334
-0.00418364
-0.00428157
-0.00427349
-0.00431347
-0.00439468
-0.0045306
-0.00472979
-0.0050031
-0.00536658
-0.00584396
-0.00647476
-0.00732888
-0.00854061
-0.0103665
-0.0132495
-0.0172908
-0.0216377
-0.0210533
-0.0156087
-0.00435096
-0.00493308
-0.00504703
-0.00500352
-0.00502768
-0.00509628
-0.00523763
-0.00546811
-0.00580715
-0.00628049
-0.0069264
-0.00780945
-0.00903765
-0.0108247
-0.0135124
-0.0177407
-0.0234697
-0.0307147
-0.0321163
-0.0281558
-0.0133881
-0.00588854
-0.00578771
-0.00562719
-0.0055464
-0.00558366
-0.00573971
-0.00601702
-0.0064259
-0.00699228
-0.0077598
-0.00880752
-0.010258
-0.01239
-0.0155039
-0.0205069
-0.0269197
-0.0363363
-0.0390009
-0.0363957
-0.0164833
-0.00651296
-0.00691199
-0.0066252
-0.0065914
-0.00652891
-0.0065812
-0.00676438
-0.00710696
-0.00763982
-0.00840033
-0.00947059
-0.0109472
-0.0131734
-0.0162145
-0.0213373
-0.0274212
-0.0363765
-0.0384352
-0.034336
-0.00530156
-0.0101875
-0.00757188
-0.00693357
-0.00630012
-0.00618919
-0.00631289
-0.00662123
-0.0070734
-0.00768926
-0.00848333
-0.00956152
-0.0109554
-0.0130242
-0.0158248
-0.020159
-0.0249462
-0.030734
-0.0297169
-0.0197496
0.0245445
-0.00694404
-0.00981339
-0.0088645
-0.00886305
-0.00839721
-0.0081181
-0.00801258
-0.00811501
-0.00845692
-0.00901933
-0.00989897
-0.0110936
-0.0129945
-0.0155013
-0.0196586
-0.0235379
-0.0275957
-0.0185556
0.00535427
0.0798659
-0.0323723
-0.00725242
-0.00589024
-0.0051162
-0.00484139
-0.00498226
-0.00542445
-0.00596751
-0.00670014
-0.00751971
-0.00870954
-0.0100708
-0.0121177
-0.0143415
-0.0169282
-0.0167224
-0.0109078
0.0177475
0.0821352
0.210382
2.62515e-05
3.87528e-06
4.53232e-05
0.000125441
0.000250947
0.00042239
0.000641106
0.000908524
0.00122526
0.00159041
0.00200065
0.00244923
0.00292492
0.00341106
0.00388504
0.00431893
0.0046811
0.00493964
0.00508916
0.0050679
4.95424e-05
2.64613e-05
7.237e-05
0.000152459
0.000275396
0.000442383
0.000655278
0.000915865
0.00122507
0.00158237
0.00198495
0.0024266
0.00289641
0.00337899
0.00385193
0.00428729
0.00465273
0.00491566
0.00507299
0.00504751
1.30091e-06
-2.87616e-05
1.57648e-05
9.27628e-05
0.000211885
0.000374498
0.000582959
0.000839779
0.00114681
0.00150464
0.00191168
0.00236306
0.00284989
0.00335627
0.00385916
0.00432811
0.00472603
0.00501321
0.00518497
0.00514535
-9.76939e-05
-0.000132615
-9.03408e-05
-1.77061e-05
9.59672e-05
0.000252381
0.00045466
0.000706391
0.00101084
0.00137037
0.00178548
0.00225346
0.00276698
0.0033124
0.00386562
0.00439237
0.00484741
0.00517864
0.0053775
0.00532308
-0.000254402
-0.000293896
-0.000255127
-0.000188364
-8.19147e-05
6.63647e-05
0.000260549
0.00050559
0.000806621
0.00116845
0.0015946
0.00208576
0.00263762
0.0032391
0.00386601
0.00447956
0.00502361
0.00542656
0.00567031
0.00559569
-0.000468121
-0.000512605
-0.000478597
-0.000419564
-0.000322839
-0.000185813
-3.36946e-06
0.000231008
0.000524675
0.000885522
0.00132115
0.00183719
0.00243429
0.00310671
0.00383248
0.00456887
0.00524549
0.00576193
0.00607924
0.00597574
-0.000737725
-0.00078807
-0.000760227
-0.000711317
-0.000627769
-0.000506615
-0.00034176
-0.000125108
0.000153115
0.000504372
0.000941393
0.00147672
0.00211977
0.00287087
0.00371892
0.00462021
0.00548896
0.00618555
0.00662764
0.00648803
-0.00106212
-0.0011195
-0.00109938
-0.00106346
-0.000997413
-0.000898223
-0.000759127
-0.000570741
-0.000321055
5.04455e-06
0.000425967
0.000963
0.0016375
0.0024633
0.00344645
0.00455454
0.00569345
0.00667896
0.00734318
0.00718253
-0.00143991
-0.00150563
-0.0014947
-0.00147478
-0.00143108
-0.00136108
-0.00125799
-0.0011119
-0.000909386
-0.000632498
-0.000257692
0.000245086
0.000911182
0.00177365
0.0028778
0.0042129
0.00570796
0.0071582
0.00822931
0.00817719
-0.00186939
-0.00194476
-0.00194392
-0.00194254
-0.00192587
-0.00189261
-0.00183699
-0.00174987
-0.00161816
-0.00142322
-0.00113874
-0.000728138
-0.000141198
0.000686568
0.00179641
0.00328235
0.00515168
0.00730395
0.00912556
0.00958147
-0.00234888
-0.00243504
-0.00244383
-0.00246215
-0.00247582
-0.00248588
-0.00248888
-0.00247824
-0.00244383
-0.00237032
-0.00223503
-0.00200425
-0.00162751
-0.00103413
-0.000140099
0.00114125
0.00310571
0.00602113
0.00910304
0.0109735
-0.00287745
-0.00297473
-0.00298976
-0.00302605
-0.00307059
-0.00312783
-0.00319796
-0.00327903
-0.00336708
-0.00345539
-0.00353371
-0.00358778
-0.00360026
-0.00355808
-0.00347033
-0.00327651
-0.00248415
0.000347961
0.00482324
0.00981063
-0.00345814
-0.00356717
-0.00358206
-0.00363048
-0.00370057
-0.00380227
-0.00394116
-0.00412204
-0.00435021
-0.00463363
-0.00498565
-0.005432
-0.00602884
-0.00691113
-0.00836359
-0.0105355
-0.0124792
-0.0106438
-0.00517984
0.00349394
-0.00409068
-0.00419964
-0.00419371
-0.00423882
-0.00432574
-0.00446771
-0.0046729
-0.00495208
-0.0053219
-0.00580783
-0.00645384
-0.00734112
-0.00862962
-0.0106286
-0.0139241
-0.018695
-0.0241534
-0.0241536
-0.018973
-0.00690251
-0.0048109
-0.00493976
-0.0048997
-0.00493257
-0.00500976
-0.00515987
-0.00539879
-0.00574609
-0.00622809
-0.00688494
-0.00778577
-0.00905181
-0.0109242
-0.0138089
-0.0184873
-0.0249566
-0.0333116
-0.0352907
-0.0319955
-0.0165566
-0.0057178
-0.00563497
-0.0054804
-0.00541115
-0.0054609
-0.00563017
-0.00592035
-0.00634105
-0.00691781
-0.00769497
-0.00875341
-0.0102262
-0.0124108
-0.0156587
-0.0209763
-0.0277832
-0.0375581
-0.0399708
-0.0387818
-0.0180872
-0.00626079
-0.00670069
-0.00641953
-0.00641151
-0.00636798
-0.00643857
-0.00663742
-0.00699304
-0.00753477
-0.00829917
-0.00936741
-0.0108406
-0.0130649
-0.0161656
-0.0213716
-0.0275647
-0.0358707
-0.0375673
-0.0346343
-0.00456131
-0.0098581
-0.00728104
-0.00664044
-0.00602786
-0.00593997
-0.00609088
-0.00642497
-0.00689898
-0.00752817
-0.0083247
-0.0093963
-0.0107738
-0.0128033
-0.0156005
-0.0198952
-0.0245654
-0.0297438
-0.0282735
-0.0191976
0.0270307
-0.00635989
-0.00939408
-0.00846115
-0.0085224
-0.00808925
-0.00784299
-0.00776352
-0.00788776
-0.0082426
-0.00880878
-0.00967746
-0.0108523
-0.0127215
-0.015236
-0.0194372
-0.0233231
-0.0270942
-0.0174811
0.00631012
0.0838126
-0.031805
-0.00668095
-0.00532115
-0.00460462
-0.00439231
-0.00458711
-0.00507082
-0.00565036
-0.00640581
-0.00723898
-0.00842804
-0.00977869
-0.0118013
-0.0140096
-0.0165396
-0.0161538
-0.00992507
0.0198824
0.0851255
0.217123
3.83913e-05
1.50562e-05
5.63679e-05
0.000136561
0.00026267
0.000435268
0.000655784
0.000925789
0.00124606
0.00161587
0.00203203
0.00248788
0.00297212
0.00346779
0.00395169
0.00439499
0.00476489
0.0050282
0.00517963
0.00515557
6.31894e-05
3.89819e-05
8.48616e-05
0.000165034
0.000288529
0.000456574
0.000671138
0.00093416
0.00124674
0.00160856
0.00201695
0.0024658
0.00294427
0.00343661
0.00391985
0.00436513
0.00473883
0.005007
0.00516665
0.00513855
1.66713e-05
-1.47108e-05
2.98139e-05
0.000106883
0.00022656
0.000390238
0.000600409
0.000859768
0.00117039
0.0015331
0.00194657
0.00240611
0.00290292
0.00342082
0.00393617
0.00441744
0.00482588
0.00511984
0.00529466
0.00525133
-8.02242e-05
-0.000116605
-7.4297e-05
-1.58264e-06
0.000112675
0.000270215
0.000474329
0.000728833
0.00103728
0.00140237
0.00182496
0.00230265
0.00282844
0.00338844
0.00395796
0.0045013
0.0049709
0.00531177
0.00551512
0.005455
-0.000234727
-0.000275807
-0.000236968
-0.000170097
-6.29905e-05
8.65481e-05
0.000282801
0.000531014
0.000836693
0.00120511
0.00164032
0.00214353
0.00271095
0.00333163
0.00398072
0.00461772
0.00518324
0.00560082
0.00585166
0.00576727
-0.000446045
-0.000492239
-0.000458127
-0.000398952
-0.00030148
-0.000163031
2.17699e-05
0.000259806
0.000558919
0.00092762
0.00137427
0.00190532
0.00252233
0.0032204
0.00397694
0.00474722
0.00545638
0.0059961
0.00632529
0.00620365
-0.000712927
-0.000765118
-0.000737152
-0.000688089
-0.000603735
-0.00048103
-0.000313565
-9.27948e-05
0.000191667
0.000552099
0.00100226
0.0015557
0.00222132
0.00300878
0.00389945
0.00484984
0.00576857
0.00650358
0.00696669
0.00679183
-0.00103412
-0.00109351
-0.00107329
-0.00103726
-0.000970441
-0.000869689
-0.000727882
-0.000535108
-0.000278619
5.77388e-05
0.00049385
0.00105313
0.00176081
0.0026267
0.0036656
0.00484313
0.00605834
0.00710874
0.0078126
0.00758291
-0.00140803
-0.00147595
-0.001465
-0.00144513
-0.00140084
-0.00132947
-0.00122385
-0.00107349
-0.000864156
-0.00057671
-0.000185908
0.000340733
0.0010419
0.0019548
0.0031275
0.00455514
0.00616269
0.00772476
0.00886952
0.00869147
-0.00183261
-0.00191044
-0.00190974
-0.00190873
-0.00189186
-0.00185772
-0.00180016
-0.00170948
-0.00157181
-0.00136736
-0.00106813
-0.000634948
-1.39625e-05
0.000862451
0.00204586
0.00363607
0.0056515
0.00799067
0.00993822
0.0101977
-0.00230572
-0.00239465
-0.00240387
-0.00242307
-0.0024372
-0.00244723
-0.00244937
-0.00243661
-0.00239823
-0.00231814
-0.00217259
-0.00192635
-0.00152663
-0.00090035
3.68282e-05
0.00137833
0.0034597
0.00661838
0.0098989
0.0116143
-0.00282571
-0.00292612
-0.00294198
-0.00297988
-0.00302585
-0.00308429
-0.00315516
-0.00323627
-0.0033235
-0.00341013
-0.0034863
-0.0035392
-0.00355505
-0.00353088
-0.00350155
-0.0034306
-0.00277341
0.000254692
0.0050635
0.0100957
-0.00339457
-0.00350735
-0.00352372
-0.0035748
-0.00364756
-0.00375199
-0.00389356
-0.00407714
-0.00430845
-0.00459658
-0.00495762
-0.00542365
-0.00606481
-0.007048
-0.00873817
-0.0113428
-0.0138573
-0.0119568
-0.00614676
0.00297213
-0.00401021
-0.00412356
-0.00411979
-0.0041688
-0.00425993
-0.00440649
-0.00461657
-0.00490119
-0.0052779
-0.00577435
-0.00643946
-0.00736587
-0.00873849
-0.0109171
-0.0146201
-0.0201005
-0.0265563
-0.0266729
-0.0211413
-0.00839017
-0.0047078
-0.00484245
-0.00480534
-0.00484425
-0.00492753
-0.00508409
-0.00532971
-0.00568431
-0.00617527
-0.00684511
-0.00776829
-0.00907777
-0.0110442
-0.014125
-0.0192459
-0.0263771
-0.03559
-0.0374516
-0.033646
-0.0180324
-0.00558004
-0.00550469
-0.00535484
-0.00529359
-0.00535125
-0.00552906
-0.00582804
-0.00625767
-0.00684391
-0.0076326
-0.00870785
-0.0102095
-0.0124602
-0.0158396
-0.0214703
-0.0286005
-0.0387119
-0.0402339
-0.0382278
-0.0183408
-0.00608361
-0.00653819
-0.00625675
-0.00626231
-0.00622888
-0.00630988
-0.00651801
-0.00688186
-0.00743086
-0.00820182
-0.00927631
-0.0107564
-0.0130025
-0.0161526
-0.0214692
-0.0277262
-0.0354736
-0.0364522
-0.0325455
-0.00363264
-0.00961207
-0.00706038
-0.00642593
-0.00582859
-0.00575021
-0.00591309
-0.00625891
-0.00674335
-0.00738055
-0.00818313
-0.0092523
-0.010624
-0.0126432
-0.0154336
-0.0197176
-0.0242526
-0.0289545
-0.0267363
-0.0167405
0.0287762
-0.00610052
-0.00917092
-0.00822015
-0.0082986
-0.00787115
-0.00763464
-0.00756396
-0.00769511
-0.00805589
-0.00862352
-0.00949058
-0.0106578
-0.0125301
-0.0150431
-0.0192701
-0.0230988
-0.0265239
-0.0161575
0.00850511
0.0862637
-0.0315076
-0.00638243
-0.00501314
-0.00430483
-0.00411115
-0.0043262
-0.00482749
-0.00542165
-0.00618785
-0.0070261
-0.00821732
-0.00956245
-0.0115781
-0.0137732
-0.0162497
-0.0157202
-0.00907322
0.0214579
0.087681
0.220438
4.99166e-05
2.6311e-05
6.7721e-05
0.000148232
0.000275097
0.000448959
0.000671365
0.000944022
0.00126787
0.00164232
0.00206432
0.00252726
0.00301977
0.0035246
0.00401804
0.00447045
0.00484799
0.00511644
0.0052704
0.00524487
7.53513e-05
5.07948e-05
9.68067e-05
0.000177308
0.000301556
0.000470848
0.000687274
0.00095292
0.00126906
0.00163553
0.00204983
0.00250589
0.00299291
0.00349479
0.00398808
0.00444305
0.00482498
0.00509873
0.00526125
0.00523185
2.99762e-05
-1.80943e-06
4.28676e-05
0.000120277
0.000240734
0.000405706
0.000617826
0.000879965
0.0011944
0.00156219
0.0019822
0.00244992
0.00295657
0.0034857
0.00401314
0.00450634
0.00492513
0.00522618
0.00540462
0.00535921
-6.53858e-05
-0.000102214
-5.97264e-05
1.33544e-05
0.000128445
0.000287373
0.000493598
0.000751155
0.00106386
0.00143473
0.00186491
0.0023523
0.00289012
0.00346424
0.00404941
0.00460863
0.00509234
0.005443
0.00565142
0.00558761
-0.000218131
-0.000259694
-0.000220649
-0.000153375
-4.53554e-05
0.00010571
0.000304314
0.000555977
0.000866552
0.00124174
0.00168604
0.00220117
0.00278373
0.00342274
0.00409285
0.00475195
0.00533783
0.00576979
0.00602817
0.00593663
-0.000427444
-0.000474155
-0.000439816
-0.000380203
-0.000281738
-0.000141611
4.58064e-05
0.000287742
0.000592485
0.000969115
0.00142667
0.00197238
0.00260855
0.00333069
0.00411584
0.0049175
0.00565683
0.00621859
0.00655973
0.00642355
-0.000692007
-0.000744756
-0.000716561
-0.000667054
-0.000581662
-0.000457175
-0.000286882
-6.18207e-05
0.000228958
0.000598476
0.00106144
0.00163259
0.0023225
0.00314059
0.0040698
0.00506472
0.00602873
0.00679878
0.00728188
0.00707691
-0.00101046
-0.00107046
-0.00105004
-0.00101363
-0.000945814
-0.000843293
-0.000698605
-0.000501357
-0.000238137
0.000108127
0.000558575
0.00113818
0.00187353
0.00277849
0.00386774
0.00510714
0.00639013
0.00749781
0.00823728
0.00794606
-0.00138103
-0.00144964
-0.00143859
-0.00141848
-0.00137338
-0.00130045
-0.00119217
-0.00103755
-0.000821618
-0.000524239
-0.000118716
0.000429471
0.00116173
0.0021189
0.00335202
0.00486041
0.00656632
0.00822499
0.00943328
0.00913713
-0.00180145
-0.00188004
-0.00187942
-0.00187846
-0.00186114
-0.00182591
-0.00176629
-0.00167211
-0.00152886
-0.00131579
-0.00100354
-0.000550887
9.89948e-05
0.00101712
0.00226199
0.00394212
0.00608462
0.00858565
0.0106404
0.0107059
-0.00226918
-0.002359
-0.00236857
-0.00238825
-0.00240252
-0.00241222
-0.00241334
-0.00239851
-0.00235662
-0.00227099
-0.00211716
-0.00185882
-0.00144151
-0.000789999
0.000181907
0.0015727
0.00375992
0.00713984
0.0105758
0.0121444
-0.00278207
-0.00288352
-0.0029001
-0.00293907
-0.00298597
-0.00304516
-0.00311644
-0.00319755
-0.00328435
-0.0033703
-0.0034462
-0.00350079
-0.00352363
-0.00352018
-0.0035461
-0.00357943
-0.00300964
0.000235033
0.00533309
0.0103755
-0.00334146
-0.00345551
-0.00347312
-0.00352607
-0.00360074
-0.00370717
-0.00385084
-0.00403683
-0.00427142
-0.00456498
-0.00493635
-0.0054236
-0.00610899
-0.00718637
-0.00909051
-0.0120765
-0.0150431
-0.0129896
-0.0068035
0.00267335
-0.00394423
-0.00405909
-0.00405712
-0.00410887
-0.00420298
-0.00435287
-0.00456675
-0.00485606
-0.0052394
-0.00574672
-0.00643181
-0.00739798
-0.00885221
-0.0111984
-0.015274
-0.0213891
-0.028671
-0.0287359
-0.0227352
-0.00940667
-0.00462573
-0.00476239
-0.00472754
-0.00477041
-0.00485776
-0.00501883
-0.00526947
-0.00563014
-0.00612942
-0.0068124
-0.00775907
-0.00911388
-0.0111759
-0.0144452
-0.0199914
-0.0277517
-0.0376947
-0.0393679
-0.03506
-0.0190957
-0.00547412
-0.00540158
-0.00525526
-0.0051993
-0.00526203
-0.00544538
-0.00575035
-0.00618668
-0.00678112
-0.00758124
-0.00867577
-0.0102116
-0.0125398
-0.0160553
-0.0220241
-0.0294929
-0.0398498
-0.0410969
-0.0386028
-0.0185479
-0.00596078
-0.0064203
-0.00613729
-0.0061494
-0.00612088
-0.00620745
-0.00642098
-0.00679003
-0.00734463
-0.00812232
-0.00920666
-0.0107015
-0.012993
-0.016199
-0.0216653
-0.0280443
-0.0355668
-0.0360767
-0.031905
-0.00288156
-0.00943697
-0.00690065
-0.00627444
-0.00568752
-0.00561387
-0.00578154
-0.00613229
-0.00662133
-0.00726288
-0.00806815
-0.0091398
-0.0105082
-0.01255
-0.0153401
-0.0196475
-0.0241013
-0.0285749
-0.02585
-0.0155756
0.0301563
-0.00597093
-0.00904678
-0.00807507
-0.00815787
-0.00772803
-0.00749127
-0.00742145
-0.00755244
-0.00791497
-0.00848162
-0.00935041
-0.0105157
-0.0124057
-0.0149149
-0.0191802
-0.0229508
-0.0261744
-0.01523
0.0098907
0.0880721
-0.0313248
-0.00620612
-0.00483028
-0.00412077
-0.00393261
-0.00415374
-0.00466221
-0.0052602
-0.00603223
-0.00687067
-0.00806837
-0.00941022
-0.0114361
-0.0136174
-0.0160718
-0.0154074
-0.0085096
0.0226067
0.0893656
0.222586
6.00878e-05
3.65003e-05
7.81306e-05
0.000159082
0.000286749
0.00046186
0.00068607
0.000961218
0.00128837
0.00166708
0.0020944
0.00256375
0.0030637
0.00357674
0.0040787
0.00453926
0.00492377
0.00519707
0.00535364
0.0053273
8.57913e-05
6.11891e-05
0.000107425
0.000188375
0.000313438
0.000483992
0.000702239
0.000970401
0.00128989
0.0016607
0.00208044
0.00254307
0.00303783
0.00354829
0.00405059
0.00451427
0.00490368
0.00518269
0.00534808
0.00531805
4.11829e-05
9.34359e-06
5.42593e-05
0.000132138
0.000253448
0.000419743
0.000633788
0.000898606
0.00121666
0.00158918
0.00201521
0.00249038
0.0030059
0.00354509
0.0040833
0.00458712
0.0050152
0.0053228
0.00550481
0.00545817
-5.30745e-05
-8.99618e-05
-4.72148e-05
2.63677e-05
0.000142372
0.000302723
0.000511037
0.00077154
0.00108828
0.00146452
0.00190167
0.00239785
0.00294645
0.0035331
0.00413206
0.00470524
0.0052014
0.00556093
0.00577415
0.00570788
-0.000204464
-0.000246088
-0.000206762
-0.000138948
-2.99401e-05
0.000122679
0.00032359
0.000578554
0.000893722
0.00127514
0.00172773
0.00225355
0.00284955
0.00350464
0.00419301
0.00487123
0.00547472
0.00591933
0.00618459
0.00608787
-0.000412173
-0.000458947
-0.000424312
-0.000364128
-0.000264604
-0.000122794
6.71574e-05
0.000312776
0.000622733
0.00100659
0.00147394
0.00203265
0.00268561
0.00342855
0.0042382
0.0050665
0.00583137
0.0064119
0.00676347
0.00661624
-0.000674854
-0.000727669
-0.000699183
-0.000649102
-0.00056262
-0.000436369
-0.000263376
-3.43204e-05
0.000262222
0.000639896
0.0011142
0.00170087
0.00241163
0.00325584
0.00421744
0.00524949
0.006251
0.0070499
0.00754966
0.00732124
-0.000991075