/*--------------------------------*- C++ -*----------------------------------*\
  =========                 |
  \\      /  F ield         | OpenFOAM: The Open Source CFD Toolbox
   \\    /   O peration     | Website:  https://openfoam.org
    \\  /    A nd           | Version:  10
     \\/     M anipulation  |
\*---------------------------------------------------------------------------*/
FoamFile
{
    format      ascii;
    class       volScalarField;
    location    "2.925";
    object      p;
}
// * * * * * * * * * * * * * * * * * * * * * * * * * * * * * * * * * * * * * //

dimensions      [0 2 -2 0 0 0 0];

internalField   nonuniform List<scalar> 
8000
(
5.41901e-06
-6.09201e-06
2.90178e-05
9.33186e-05
0.000191424
0.000323316
0.000487951
0.00068352
0.000907188
0.00115482
0.00142103
0.0016988
0.00197956
0.00225332
0.002509
0.00273494
0.0029196
0.00305279
0.00313315
0.00313119
2.15285e-05
6.52629e-06
4.08259e-05
0.000103062
0.000198433
0.00032712
0.000488309
0.000680432
0.000900879
0.0011458
0.00140987
0.00168614
0.00196646
0.0022407
0.00249763
0.00272537
0.00291204
0.00304718
0.00313001
0.00312743
-1.7533e-05
-3.59471e-05
-2.80467e-06
5.82945e-05
0.000153002
0.000281648
0.000443669
0.000637808
0.000861765
0.00111196
0.00138335
0.00166942
0.00196138
0.0022489
0.00252014
0.00276222
0.00296195
0.00310729
0.00319698
0.00319326
-9.35391e-05
-0.000114798
-8.27146e-05
-2.26458e-05
7.17663e-05
0.00020119
0.000365502
0.000563937
0.000794697
0.00105466
0.00133913
0.00164162
0.00195369
0.00226428
0.00256036
0.00282739
0.00305002
0.00321354
0.00331558
0.00331253
-0.00021178
-0.0002363
-0.000205331
-0.00014618
-5.15733e-05
7.96372e-05
0.000247937
0.000453241
0.000694448
0.000969111
0.00127307
0.00160011
0.00194182
0.00228652
0.00261981
0.00292476
0.00318266
0.00337464
0.00349615
0.00349536
-0.000374457
-0.000403045
-0.000373477
-0.000315489
-0.00022065
-8.71889e-05
8.6179e-05
0.00030027
0.000554931
0.000848649
0.00117808
0.00153758
0.00191913
0.00231035
0.00269525
0.00305385
0.00336275
0.0035968
0.00374767
0.00375144
-0.00058422
-0.000617938
-0.000590357
-0.000534272
-0.000439807
-0.000304415
-0.000125793
9.80332e-05
0.000368167
0.000684389
0.00104459
0.00144406
0.00187584
0.00232713
0.00278041
0.00321216
0.00359275
0.00388778
0.0040823
0.0040948
-0.000844492
-0.000884672
-0.000860014
-0.000807163
-0.000714466
-0.00057843
-0.000395507
-0.000162274
0.000123978
0.000464772
0.000859796
0.00130579
0.00179795
0.00232364
0.00286464
0.00339374
0.00387368
0.00425682
0.00451642
0.0045454
-0.00115947
-0.00120772
-0.0011873
-0.00113966
-0.00105104
-0.000916798
-0.000731914
-0.000491224
-0.000190051
0.000175375
0.000607384
0.00110634
0.0016658
0.00227995
0.00293007
0.0035861
0.00420229
0.0047134
0.00507131
0.00513386
-0.00153432
-0.00159253
-0.00157795
-0.00153819
-0.0014569
-0.00132818
-0.00114527
-0.000901008
-0.000588461
-0.000201247
0.000266025
0.000816816
0.00145142
0.0021665
0.00294766
0.00376513
0.00456576
0.00526405
0.0057727
0.00590547
-0.00197561
-0.00204583
-0.00203886
-0.00201017
-0.0019404
-0.0018222
-0.00164686
-0.00140502
-0.00108734
-0.000684613
-0.000187797
0.000411497
0.00111976
0.00194137
0.00287155
0.00388696
0.00493212
0.00590383
0.00664806
0.00692971
-0.00249229
-0.00257633
-0.00257839
-0.00256415
-0.00251077
-0.00240918
-0.00224848
-0.00201706
-0.00170327
-0.00129526
-0.000780417
-0.00014484
0.000627012
0.00154723
0.00263194
0.00387494
0.00523241
0.0065981
0.00771728
0.00831664
-0.00309764
-0.00319575
-0.00320699
-0.00321008
-0.00317809
-0.0030998
-0.00296179
-0.00275019
-0.0024515
-0.00205216
-0.0015373
-0.00088892
-8.42267e-05
0.000905477
0.0021263
0.00360199
0.0053309
0.00724545
0.00894531
0.010247
-0.00381639
-0.00392285
-0.00393897
-0.00396007
-0.00395354
-0.00390481
-0.00379736
-0.00361502
-0.00334323
-0.0029684
-0.00247584
-0.00184585
-0.00104813
-3.56933e-05
0.00125045
0.00288752
0.00498557
0.00759814
0.0101731
0.0130043
-0.00467225
-0.00478297
-0.00479545
-0.00483164
-0.00485072
-0.00483426
-0.00476249
-0.00461663
-0.00438152
-0.00404629
-0.00360146
-0.0030362
-0.00232811
-0.0014326
-0.000263686
0.00133835
0.00364818
0.00711437
0.0109126
0.016631
-0.00583635
-0.00577643
-0.00574255
-0.0057654
-0.00582026
-0.00585949
-0.00584489
-0.00574802
-0.00555487
-0.00526254
-0.0048755
-0.00439714
-0.0038256
-0.00313006
-0.00222423
-0.00086133
0.00120885
0.00505818
0.00961253
0.0201823
-0.00702924
-0.0072791
-0.0071622
-0.00723064
-0.00725692
-0.00725452
-0.00720351
-0.00708464
-0.00688962
-0.00661881
-0.00629193
-0.00593595
-0.00559972
-0.00532066
-0.0051164
-0.0048285
-0.00458799
-0.000632674
0.0041406
0.0228499
-0.0107483
-0.0081552
-0.00794212
-0.00771586
-0.00781078
-0.00796408
-0.00808975
-0.00811678
-0.00802549
-0.00781628
-0.00754179
-0.00724674
-0.00705692
-0.00706302
-0.00749185
-0.00808112
-0.00999729
-0.00637665
-0.00170466
0.0281844
-0.0110096
-0.0120604
-0.0111436
-0.0111707
-0.0109024
-0.0106675
-0.0104118
-0.0101087
-0.00976549
-0.009363
-0.00897284
-0.00863706
-0.00853595
-0.00886123
-0.0100803
-0.0117663
-0.0166587
-0.0127123
-0.00777135
0.0477022
-0.034453
-0.00971382
-0.00900901
-0.00843584
-0.00835275
-0.00864654
-0.00898758
-0.00915495
-0.00918991
-0.00901981
-0.0088483
-0.00856521
-0.00858074
-0.00860777
-0.00928424
-0.00880594
-0.00749084
0.00812573
0.0406252
0.136785
1.17727e-05
-1.08229e-05
2.27e-05
8.63051e-05
0.000184686
0.000317348
0.000483055
0.000679933
0.000905329
0.00115496
0.00142328
0.00170332
0.0019865
0.00226277
0.00252087
0.00274895
0.00293507
0.00306824
0.00314749
0.00313485
3.47333e-05
1.05917e-05
4.3957e-05
0.000105109
0.00019997
0.000328401
0.000489454
0.000681563
0.000902156
0.00114738
0.00141196
0.00168896
0.00197014
0.00224538
0.00250336
0.00273206
0.00291923
0.00305374
0.00313554
0.0031215
-2.51453e-06
-3.0583e-05
1.76352e-06
6.17052e-05
0.000155783
0.000284018
0.000445737
0.0006397
0.00086364
0.00111401
0.00138577
0.00167244
0.00196521
0.00225374
0.00252608
0.00276919
0.00296946
0.0031141
0.00320261
0.00318561
-7.62587e-05
-0.000107776
-7.64404e-05
-1.76056e-05
7.60707e-05
0.00020495
0.000368811
0.000566915
0.000797502
0.0010575
0.00134222
0.00164528
0.00195813
0.00226973
0.00256697
0.00283512
0.00305835
0.00322109
0.00332177
0.00330389
-0.000192362
-0.00022789
-0.000197639
-0.000139773
-4.59478e-05
8.46713e-05
0.000252474
0.000457409
0.000698421
0.000973114
0.00127737
0.00160507
0.00194767
0.00229357
0.00262826
0.00293459
0.0031933
0.00338444
0.00350441
0.00348694
-0.000352589
-0.00039313
-0.000364239
-0.000307579
-0.000213547
-8.06926e-05
9.21757e-05
0.000305912
0.000560418
0.000854242
0.00118411
0.00154449
0.00192718
0.00231995
0.0027067
0.00306719
0.00337734
0.0036106
0.00375965
0.00374386
-0.000559284
-0.000606126
-0.000579163
-0.000524461
-0.000430837
-0.000296071
-0.000117949
0.000105552
0.0003756
0.000692052
0.0010529
0.00145362
0.00188695
0.00234038
0.0027963
0.00323085
0.00361353
0.0039081
0.00410055
0.00408955
-0.000815646
-0.00087038
-0.000846268
-0.000794882
-0.000703089
-0.000567733
-0.000385335
-0.000152406
0.000133842
0.000475023
0.000870953
0.00131879
0.00181307
0.00234191
0.00288687
0.00342042
0.00390408
0.00428774
0.00454525
0.00454648
-0.0011256
-0.00119015
-0.00117018
-0.00112415
-0.00103656
-0.00090313
-0.000718855
-0.000478485
-0.000177246
0.000188734
0.000621798
0.00112173
0.00168587
0.00230492
0.00296123
0.00362458
0.00424769
0.00476172
0.00511793
0.00514756
-0.00149391
-0.00157054
-0.00155635
-0.00151845
-0.00143847
-0.00131081
-0.00112871
-0.000884874
-0.000572225
-0.000184198
0.000284754
0.00083787
0.00147808
0.00220024
0.00299107
0.00382085
0.0046345
0.00534127
0.00584998
0.00594608
-0.00192651
-0.00201779
-0.00201117
-0.00198482
-0.00191689
-0.00180029
-0.00162618
-0.00138505
-0.00106735
-0.000663573
-0.000164179
0.000440556
0.00115403
0.00198593
0.00293118
0.00396718
0.00503661
0.00602971
0.00677907
0.00703302
-0.00243118
-0.00253978
-0.0025423
-0.00253132
-0.0024808
-0.0023818
-0.00222318
-0.00199309
-0.00167962
-0.00127061
-0.000752974
-0.000112257
0.000667251
0.00160365
0.00271132
0.00398794
0.00538932
0.00680319
0.00794287
0.00856733
-0.00301896
-0.00314657
-0.00315887
-0.00316708
-0.00313991
-0.00306607
-0.00293173
-0.00272267
-0.00242508
-0.00202509
-0.00150737
-0.000853251
-3.9182e-05
0.000976634
0.00222835
0.00375409
0.00555676
0.00756623
0.00932909
0.0108423
-0.0037103
-0.00385403
-0.00387236
-0.0039024
-0.00390473
-0.00386419
-0.00376345
-0.00358589
-0.0033166
-0.00294177
-0.00244615
-0.00180764
-0.000991945
4.14543e-05
0.00135231
0.00305715
0.00526205
0.00803715
0.0107679
0.0143217
-0.00451637
-0.00468621
-0.00470413
-0.00475855
-0.00479304
-0.00479024
-0.00472962
-0.00459198
-0.00436183
-0.00402765
-0.00358103
-0.00300937
-0.00229187
-0.00138189
-0.000189578
0.00147789
0.003866
0.00753966
0.011477
0.0187517
-0.00559035
-0.0055799
-0.00557404
-0.00563171
-0.00572559
-0.00579989
-0.00581389
-0.00573788
-0.00555765
-0.00527018
-0.00488155
-0.00439582
-0.00381401
-0.00310932
-0.00218628
-0.000864734
0.000890268
0.00455883
0.00818617
0.0211821
-0.00655577
-0.00705805
-0.00696533
-0.00713432
-0.0072199
-0.00726681
-0.0072487
-0.00715107
-0.00696744
-0.00669842
-0.00636708
-0.00600269
-0.00566543
-0.00541993
-0.005352
-0.00557364
-0.0063883
-0.00374424
-0.00193626
0.0203805
-0.00998136
-0.00757058
-0.00747617
-0.00740145
-0.00766152
-0.00794162
-0.00815952
-0.00824632
-0.00818839
-0.00798528
-0.00770267
-0.0073822
-0.00718354
-0.00723179
-0.00795153
-0.00923226
-0.0133165
-0.0122951
-0.0111776
0.0246332
-0.00809403
-0.0109136
-0.0105191
-0.0111109
-0.0111595
-0.0111178
-0.0109663
-0.0106969
-0.0103438
-0.00988343
-0.00941498
-0.00899626
-0.00880581
-0.00912765
-0.0106663
-0.0128889
-0.0202306
-0.0193189
-0.0117355
0.0498542
-0.0317117
-0.00764395
-0.00744753
-0.00756768
-0.00794844
-0.00850395
-0.00902848
-0.00931867
-0.00943497
-0.00924593
-0.00909443
-0.00872263
-0.00878601
-0.0087914
-0.00976981
-0.0096952
-0.0084185
0.00780715
0.0518935
0.162642
1.7329e-05
-8.58261e-06
2.40362e-05
8.68974e-05
0.00018502
0.00031774
0.000483761
0.00068123
0.000907086
0.00115745
0.00142678
0.00170804
0.00199256
0.0022702
0.0025296
0.00275877
0.00294554
0.00307862
0.00315731
0.00314106
4.30427e-05
1.55864e-05
4.82189e-05
0.000108545
0.000202909
0.000331041
0.000491957
0.000684084
0.000904816
0.00115036
0.00141543
0.00169311
0.0019751
0.00225124
0.00251014
0.0027396
0.00292718
0.00306145
0.00314275
0.00312538
6.97263e-06
-2.4562e-05
7.10153e-06
6.61685e-05
0.000159679
0.000287523
0.000448996
0.000642861
0.000866859
0.00111747
0.00138966
0.00167697
0.00197054
0.00226001
0.00253333
0.00277729
0.00297805
0.00312248
0.00321056
0.00319047
-6.51043e-05
-0.000100303
-6.96401e-05
-1.17576e-05
8.12605e-05
0.000209644
0.000373144
0.000571037
0.000801588
0.00106175
0.00134686
0.00165057
0.00196426
0.00227689
0.00257522
0.00284439
0.00306826
0.00323084
0.00333109
0.00330961
-0.000179369
-0.00021888
-0.000189316
-0.000132477
-3.93861e-05
9.0658e-05
0.000258024
0.000462683
0.000703619
0.000978475
0.00128317
0.00161161
0.00195523
0.0023024
0.0026385
0.00294619
0.00320584
0.00339696
0.00351645
0.00349422
-0.000337378
-0.00038229
-0.000354115
-0.000298573
-0.000205358
-7.31604e-05
9.91992e-05
0.000312612
0.000567029
0.000861052
0.00119147
0.0015528
0.0019368
0.00233126
0.00271995
0.00308241
0.00339408
0.00362765
0.00377634
0.00375494
-0.000541266
-0.000592964
-0.000566761
-0.000513302
-0.000420617
-0.000286624
-0.00010911
0.000114002
0.000383946
0.000700656
0.00106221
0.00146418
0.00189926
0.00235503
0.00281375
0.0032513
0.00363653
0.00393217
0.00412461
0.00410706
-0.000794004
-0.000854193
-0.000830912
-0.000780961
-0.000690301
-0.000555909
-0.000374288
-0.000141872
0.000144218
0.000485701
0.000882516
0.00133199
0.00182866
0.0023608
0.00290989
0.0034481
0.00393615
0.0043224
0.00458074
0.00457413
-0.0010992
-0.00116995
-0.00115094
-0.00110665
-0.00102052
-0.000888374
-0.000705177
-0.000465561
-0.000164623
0.000201649
0.000635758
0.00113769
0.00170514
0.00232884
0.00299125
0.00366191
0.00429257
0.00481219
0.00517122
0.00519248
-0.00146117
-0.00154494
-0.00153193
-0.00149627
-0.00141827
-0.00129247
-0.00111198
-0.000869337
-0.000557299
-0.000169083
0.000301161
0.000857271
0.0015012
0.00222962
0.00302929
0.00387042
0.00469685
0.00541501
0.00593075
0.00602092
-0.00188514
-0.00198476
-0.00197974
-0.00195645
-0.00189143
-0.00177762
-0.00160602
-0.00136687
-0.00105039
-0.000646813
-0.000146342
0.000460747
0.00117977
0.00202017
0.00297782
0.00403087
0.00512138
0.00613649
0.00690135
0.00716024
-0.00237772
-0.00249629
-0.00250117
-0.00249465
-0.00244858
-0.00235397
-0.00219937
-0.00197257
-0.0016614
-0.00125337
-0.000735048
-9.15345e-05
0.000693585
0.00164035
0.00276417
0.00406493
0.00549944
0.00695347
0.0081262
0.00878831
-0.00294799
-0.00308788
-0.00310393
-0.00311905
-0.00309898
-0.0030322
-0.00290435
-0.00270076
-0.00240726
-0.00200966
-0.00149228
-0.000835889
-1.54074e-05
0.00101102
0.0022808
0.00383688
0.00568731
0.0077638
0.00959103
0.0112306
-0.00361276
-0.00377238
-0.00379681
-0.00383806
-0.00385221
-0.00382333
-0.0037332
-0.00356463
-0.0033023
-0.0029321
-0.00243855
-0.00179925
-0.000979865
6.21241e-05
0.00138632
0.0031208
0.00538306
0.00825784
0.0111068
0.0149559
-0.00437781
-0.00457073
-0.00459896
-0.00467295
-0.00472678
-0.00474262
-0.00469895
-0.0045756
-0.00435674
-0.00403064
-0.00358887
-0.00302042
-0.00230508
-0.00139739
-0.000205783
0.00146653
0.0038836
0.00767063
0.0117696
0.0195646
-0.00538386
-0.00539586
-0.00541029
-0.00549879
-0.00562776
-0.00573619
-0.00578112
-0.00573033
-0.00556875
-0.00529359
-0.00491248
-0.00443197
-0.00385671
-0.0031648
-0.00226223
-0.000988789
0.000627831
0.00422737
0.00780026
0.0214193
-0.00622496
-0.00679236
-0.00673248
-0.00696777
-0.00711153
-0.00721225
-0.00724275
-0.00718172
-0.00702303
-0.00676845
-0.00644509
-0.00608681
-0.00576384
-0.0055598
-0.0055953
-0.00606184
-0.00739526
-0.00530084
-0.00356347
0.019307
-0.00954735
-0.00718367
-0.00711699
-0.0071215
-0.00747774
-0.00784825
-0.00814675
-0.00829482
-0.00827977
-0.00809953
-0.00782808
-0.0075092
-0.00732553
-0.00742048
-0.00831578
-0.00992692
-0.0148549
-0.0149887
-0.0134281
0.0238986
-0.00704018
-0.0101108
-0.00988457
-0.010674
-0.0109073
-0.0110492
-0.0110452
-0.010873
-0.0105763
-0.0101328
-0.00965731
-0.00922036
-0.0090181
-0.00937991
-0.0111427
-0.0136985
-0.0218579
-0.0213096
-0.0103298
0.0530623
-0.0308533
-0.00679871
-0.00668676
-0.00701257
-0.00760893
-0.00833875
-0.00900158
-0.00938212
-0.00956328
-0.00939092
-0.00925307
-0.00886023
-0.00895614
-0.00901333
-0.0101186
-0.0101654
-0.00833389
0.00889588
0.05845
0.173108
2.26112e-05
-5.19983e-06
2.66843e-05
8.89336e-05
0.000186756
0.000319409
0.000485547
0.000683281
0.000909707
0.00116076
0.00143093
0.00171314
0.00199872
0.00227746
0.00253791
0.00276796
0.00295524
0.00308828
0.0031666
0.00314838
5.00429e-05
2.08406e-05
5.28197e-05
0.000112446
0.000206356
0.000334218
0.000495019
0.000687186
0.000908134
0.00115406
0.00141968
0.00169807
0.00198088
0.00225792
0.00251768
0.00274787
0.00293585
0.00307
0.00315093
0.00313136
1.50712e-05
-1.82766e-05
1.27557e-05
7.1085e-05
0.000164076
0.000291568
0.000452839
0.000646658
0.000870783
0.0011217
0.0013944
0.00168239
0.00197681
0.00226722
0.00254149
0.00278627
0.00298752
0.00313186
0.00321954
0.00319677
-5.54963e-05
-9.26014e-05
-6.25839e-05
-5.49747e-06
8.69214e-05
0.000214857
0.000378053
0.000575801
0.000806392
0.0010668
0.00135239
0.00165682
0.00197143
0.00228513
0.0025846
0.00285479
0.00307933
0.00324193
0.00334183
0.00331744
-0.000168023
-0.000209567
-0.000180687
-0.000124723
-3.23158e-05
9.71891e-05
0.000264163
0.000468606
0.000709537
0.000984636
0.00128985
0.00161913
0.00196386
0.00231238
0.00264996
0.00295907
0.00321978
0.00341118
0.00353049
0.00350525
-0.000323902
-0.000371014
-0.000343583
-0.000289022
-0.000196603
-6.50547e-05
0.000106814
0.000319935
0.000574312
0.000868602
0.00119964
0.00156201
0.00194744
0.00234371
0.00273447
0.00309902
0.00341242
0.00364681
0.00379565
0.00377093
-0.000525087
-0.000579192
-0.000553826
-0.000501506
-0.000409777
-0.000276596
-9.97205e-05
0.00012299
0.00039284
0.000709844
0.00107216
0.00147545
0.00191243
0.00237068
0.00283238
0.00327312
0.00366126
0.0039587
0.00415197
0.00413088
-0.000774321
-0.000837182
-0.000814881
-0.000766304
-0.000676852
-0.00054353
-0.000362783
-0.000130957
0.000154926
0.0004967
0.000894426
0.00134557
0.00184475
0.00238033
0.00293374
0.00347688
0.0039698
0.00435969
0.00462025
0.00461024
-0.00107491
-0.00114866
-0.00113086
-0.00108831
-0.00100378
-0.000873128
-0.000691195
-0.000452497
-0.000151994
0.000214483
0.000649612
0.00115358
0.0017243
0.0023527
0.00302133
0.00369955
0.00433832
0.00486494
0.00522889
0.00524807
-0.00143072
-0.00151793
-0.00150648
-0.00147314
-0.0013974
-0.00127375
-0.00109516
-0.000853999
-0.000542823
-0.000154644
0.000316644
0.000875216
0.00152309
0.00225769
0.0030661
0.00391857
0.00475826
0.00548948
0.00601532
0.00610788
-0.0018463
-0.00194994
-0.00194707
-0.00192702
-0.00186529
-0.00175472
-0.00158606
-0.00134931
-0.00103445
-0.000631455
-0.000130256
0.000479236
0.00120297
0.00205116
0.00302052
0.00408999
0.00520149
0.00624021
0.0070254
0.0072986
-0.00232722
-0.00245062
-0.0024586
-0.00245681
-0.00241571
-0.00232607
-0.00217607
-0.00195315
-0.00164484
-0.00123837
-0.000720045
-7.45714e-05
0.000715392
0.0016709
0.00280906
0.00413198
0.00559819
0.0070931
0.008307
0.00901106
-0.00288088
-0.00302681
-0.00304754
-0.00306981
-0.00305742
-0.00299838
-0.00287774
-0.00268034
-0.00239166
-0.00199724
-0.00148136
-0.000824384
-4.01445e-07
0.00103424
0.00231865
0.00390084
0.00579521
0.0079376
0.00984182
0.0116008
-0.00352105
-0.00368891
-0.00372053
-0.00377295
-0.00379923
-0.00378257
-0.00370375
-0.00354493
-0.0032904
-0.00292595
-0.00243621
-0.0017986
-0.000978618
6.62805e-05
0.00139936
0.00315573
0.00546826
0.00843599
0.0114231
0.015544
-0.00425022
-0.00445508
-0.00449478
-0.00458706
-0.00465979
-0.0046945
-0.00466823
-0.00455987
-0.00435317
-0.00403662
-0.00360226
-0.00304008
-0.00233145
-0.00143352
-0.000253914
0.00141054
0.00385091
0.00774122
0.0120561
0.020365
-0.00519897
-0.00522455
-0.00525735
-0.00537313
-0.00553325
-0.00567328
-0.00574748
-0.00572158
-0.00557953
-0.00531896
-0.0049492
-0.00447949
-0.00391922
-0.00325207
-0.00239086
-0.00115894
0.000346043
0.00389835
0.00760382
0.0219509
-0.00595229
-0.00656339
-0.00652968
-0.00681856
-0.00701014
-0.00715744
-0.00722759
-0.00719876
-0.00706494
-0.0068283
-0.00651908
-0.00617554
-0.00587782
-0.00572498
-0.0058707
-0.00657167
-0.00829692
-0.00659188
-0.00478946
0.0190902
-0.0091664
-0.00683673
-0.00680578
-0.00687365
-0.00730325
-0.00774879
-0.00811404
-0.0083162
-0.00834166
-0.00818748
-0.00793411
-0.00762994
-0.00747712
-0.00763756
-0.00870273
-0.0106173
-0.0162458
-0.0172117
-0.015451
0.0236834
-0.00639825
-0.00963378
-0.00945106
-0.0103765
-0.0107257
-0.0109804
-0.0110657
-0.0109633
-0.0107158
-0.0102958
-0.0098292
-0.00939531
-0.00920677
-0.00963131
-0.0115801
-0.014448
-0.0233124
-0.0231022
-0.0109154
0.055492
-0.0301004
-0.00607054
-0.0060442
-0.00651476
-0.00727326
-0.0081485
-0.00893273
-0.00940175
-0.00965098
-0.00950876
-0.00939274
-0.0090053
-0.00913035
-0.00924434
-0.0104479
-0.010629
-0.00880187
0.00882464
0.0604046
0.179414
2.76604e-05
-8.23096e-07
3.06394e-05
9.2451e-05
0.000189975
0.000322468
0.000488581
0.000686427
0.000913127
0.0011646
0.00143533
0.00171823
0.00200459
0.00228416
0.00254542
0.00277614
0.00296385
0.003097
0.00317522
0.00315627
5.5873e-05
2.59629e-05
5.75323e-05
0.000116689
0.000210247
0.000337877
0.000498572
0.000690765
0.000911884
0.00115813
0.00142422
0.00170322
0.00198674
0.00226456
0.00252508
0.00275592
0.00294434
0.0030786
0.00315946
0.00313918
2.17253e-05
-1.23627e-05
1.82541e-05
7.60804e-05
0.000168676
0.000295883
0.00045699
0.000650781
0.00087503
0.00112624
0.00139939
0.00168801
0.00198319
0.00227445
0.00254959
0.00279514
0.00299693
0.00314147
0.00322913
0.00320556
-4.76279e-05
-8.55176e-05
-5.59408e-05
5.88487e-07
9.25453e-05
0.00022012
0.000383075
0.000580725
0.000811386
0.00107206
0.00135811
0.00166321
0.0019787
0.00229341
0.00259394
0.00286513
0.00309044
0.00325342
0.00335342
0.00332819
-0.000158641
-0.000201035
-0.000172638
-0.000117305
-2.54444e-05
0.000103611
0.000270259
0.000474533
0.00071549
0.000990846
0.00129658
0.00162665
0.00197245
0.00232226
0.00266126
0.00297178
0.00323367
0.00342577
0.00354542
0.00351938
-0.000312611
-0.000360656
-0.000333776
-0.000279953
-0.000188195
-5.72167e-05
0.000114213
0.000327076
0.000581429
0.000875981
0.00120762
0.00157096
0.00195776
0.00235574
0.00274849
0.0031151
0.00343037
0.00366606
0.00381566
0.00379019
-0.00051135
-0.000566498
-0.000541784
-0.000490357
-0.000399462
-0.000267031
-9.07636e-05
0.000131549
0.000401288
0.000718544
0.00108155
0.00148605
0.00192479
0.00238538
0.00284989
0.00329373
0.00368486
0.00398461
0.00417945
0.00415778
-0.000757415
-0.000821458
-0.000799964
-0.000752515
-0.000664162
-0.00053187
-0.000351999
-0.000120801
0.000164807
0.000506768
0.000905258
0.00135786
0.00185931
0.00239805
0.00295545
0.00350322
0.00400092
0.0043949
0.00465846
0.00464843
-0.00105385
-0.00112897
-0.00111221
-0.00107115
-0.000988128
-0.000858939
-0.000678311
-0.000440623
-0.000140696
0.000225789
0.000661673
0.00116732
0.00174087
0.00237342
0.00304761
0.00373268
0.00437905
0.0049128
0.00528233
0.00530296
-0.00140414
-0.00149295
-0.00148292
-0.00145161
-0.00137801
-0.00125652
-0.00107992
-0.000840386
-0.000530316
-0.00014252
0.000329332
0.000889652
0.00154084
0.00228067
0.00309658
0.00395893
0.00481045
0.00555393
0.00609003
0.00618766
-0.00181229
-0.00191787
-0.00191697
-0.0018998
-0.0018412
-0.00173384
-0.00156822
-0.0013341
-0.00102124
-0.00061936
-0.000118126
0.000492889
0.00122005
0.00207431
0.00305319
0.0041363
0.0052657
0.00632508
0.00712923
0.00741574
-0.00228305
-0.00240886
-0.0024197
-0.00242208
-0.00238562
-0.00230082
-0.00215546
-0.00193671
-0.0016318
-0.00122773
-0.000710407
-6.43749e-05
0.000728542
0.00168999
0.00283892
0.00417926
0.0056713
0.00719989
0.00844922
0.00918399
-0.00282266
-0.00297172
-0.0029966
-0.00302505
-0.0030196
-0.00296785
-0.00285428
-0.00266335
-0.00238024
-0.00199029
-0.00147732
-0.000821733
2.72051e-06
0.00104112
0.00233543
0.00393662
0.00586579
0.00806022
0.0100264
0.0118597
-0.00344299
-0.00361519
-0.00365291
-0.00371454
-0.00375127
-0.00374558
-0.00367743
-0.00352844
-0.00328252
-0.00292517
-0.00244108
-0.00180784
-0.000990839
5.19118e-05
0.00138702
0.00315419
0.00550891
0.00854864
0.0116433
0.0159144
-0.00414507
-0.00435588
-0.00440453
-0.00451079
-0.0045989
-0.00464973
-0.00463924
-0.00454538
-0.00435134
-0.0040456
-0.0036207
-0.00306763
-0.00236922
-0.00148562
-0.000327313
0.00130956
0.00379138
0.00776706
0.0122616
0.0208393
-0.00505364
-0.00508546
-0.00513103
-0.00526648
-0.00544992
-0.00561475
-0.00571329
-0.0057095
-0.00558627
-0.00534128
-0.00498523
-0.00452962
-0.00398764
-0.0033484
-0.00254244
-0.00148351
0.000115404
0.00368952
0.00759183
0.0223115
-0.00575836
-0.00638609
-0.00636709
-0.00668846
-0.00691232
-0.00709333
-0.00719623
-0.00719683
-0.00708756
-0.00687075
-0.00657884
-0.00625357
-0.0059815
-0.0058687
-0.00607331
-0.00677564
-0.00886082
-0.00734446
-0.00529467
0.0190837
-0.00890621
-0.00658739
-0.00657599
-0.00667951
-0.00715424
-0.00764835
-0.00806275
-0.0083088
-0.00837015
-0.00824319
-0.00801195
-0.00772865
-0.00760768
-0.00782293
-0.00899933
-0.0110873
-0.0171384
-0.0185418
-0.0163695
0.0235453
-0.0060866
-0.00934573
-0.00915957
-0.0101376
-0.010542
-0.0108559
-0.0110165
-0.0109721
-0.0107691
-0.010379
-0.00993357
-0.00951823
-0.00935638
-0.00984167
-0.0119228
-0.01501
-0.0243038
-0.0242686
-0.0112985
0.0565143
-0.0297025
-0.00565653
-0.00565753
-0.00618623
-0.00702558
-0.00798841
-0.00885446
-0.00938806
-0.00968858
-0.00957934
-0.00948859
-0.00911977
-0.00927525
-0.0094452
-0.0107336
-0.0110332
-0.00925709
0.00855555
0.0612437
0.18191
3.22601e-05
3.46673e-06
3.46504e-05
9.61554e-05
0.000193442
0.000325786
0.000491854
0.000689769
0.000916663
0.00116845
0.00143962
0.00172306
0.00201005
0.00229028
0.00255218
0.00278346
0.00297158
0.00310492
0.00318318
0.00316397
6.08831e-05
3.06672e-05
6.1961e-05
0.000120798
0.000214094
0.000341542
0.000502151
0.000694369
0.000915636
0.00116216
0.00142865
0.00170817
0.00199231
0.0022708
0.00253199
0.00276342
0.00295226
0.00308674
0.00316766
0.00314712
2.73865e-05
-7.01885e-06
2.33114e-05
8.07916e-05
0.000173091
0.000300076
0.000461056
0.000654834
0.0008792
0.00113067
0.00140423
0.0016934
0.00198925
0.00228127
0.00255718
0.00280344
0.00300578
0.00315063
0.00323842
0.00321456
-4.09832e-05
-7.92092e-05
-4.9944e-05
6.19468e-06
9.78008e-05
0.000225092
0.000387859
0.000585442
0.000816181
0.0010771
0.00136358
0.0016693
0.00198557
0.00230119
0.00260269
0.00287482
0.0031009
0.00326437
0.00336463
0.00333913
-0.000150714
-0.000193471
-0.000165428
-0.000110551
-1.91175e-05
0.000109572
0.000275953
0.000480095
0.00072109
0.000996689
0.0013029
0.00163369
0.00198045
0.00233142
0.00267173
0.00298356
0.00324661
0.00343954
0.00355969
0.00353343
-0.000303032
-0.000351477
-0.000325016
-0.000271746
-0.000180526
-5.00318e-05
0.000121018
0.000333656
0.000587988
0.000882777
0.00121495
0.00157916
0.00196718
0.00236671
0.00276125
0.00312977
0.00344683
0.0036839
0.00383444
0.00380889
-0.000499644
-0.000555241
-0.000531044
-0.000480314
-0.000390125
-0.000258355
-8.26381e-05
0.000139303
0.00040892
0.000726376
0.00108998
0.00149553
0.00193582
0.00239847
0.0028655
0.00331213
0.00370603
0.00400811
0.00420462
0.00418317
-0.00074295
-0.000807511
-0.000786682
-0.000740147
-0.000652752
-0.000521393
-0.000342341
-0.000111754
0.000173547
0.000515607
0.000914707
0.00136853
0.00187194
0.00241339
0.00297428
0.00352613
0.00402815
0.004426
0.00469249
0.0046833
-0.00103578
-0.00111151
-0.00109564
-0.00105582
-0.000974139
-0.0008463
-0.00066691
-0.000430221
-0.000130926
0.000235431
0.000671837
0.00117881
0.00175471
0.00239076
0.00306968
0.00376062
0.0044136
0.00495375
0.00532843
0.00535122
-0.00138132
-0.00147088
-0.00146206
-0.00143248
-0.00136081
-0.0012413
-0.00106657
-0.000828656
-0.000519758
-0.000132521
0.000339569
0.000901123
0.00155495
0.00229904
0.00312113
0.0039917
0.00485315
0.00560712
0.00615219
0.00625473
-0.00178314
-0.00188967
-0.00189049
-0.00187576
-0.00181994
-0.00171552
-0.00155275
-0.00132118
-0.00101035
-0.000609786
-0.000108921
0.000503055
0.0012326
0.00209163
0.00307807
0.00417219
0.0053161
0.00639232
0.0072122
0.00750931
-0.00224543
-0.00237248
-0.00238575
-0.00239165
-0.00235924
-0.00227877
-0.00213769
-0.00192288
-0.00162132
-0.00121979
-0.000704089
-5.81344e-05
0.000736282
0.00170246
0.0028596
0.00421363
0.00572599
0.0072809
0.00855803
0.0093145
-0.00277366
-0.00292435
-0.0029527
-0.00298621
-0.00298666
-0.00294125
-0.00283403
-0.00264905
-0.00237117
-0.00198554
-0.00147593
-0.000822432
1.40128e-06
0.00104229
0.00234356
0.00395979
0.00591544
0.00814929
0.0101624
0.0120439
-0.00337861
-0.00355306
-0.00359567
-0.00366455
-0.00370981
-0.00371335
-0.00365445
-0.00351422
-0.00327619
-0.00292581
-0.00244771
-0.00181948
-0.00100624
3.40654e-05
0.00137166
0.00315039
0.0055345
0.00862683
0.0118008
0.0161656
-0.00406071
-0.00427445
-0.00432985
-0.0044465
-0.00454663
-0.00461049
-0.00461317
-0.00453186
-0.0043493
-0.00405391
-0.00363856
-0.00309489
-0.00240655
-0.00153479
-0.000388088
0.00124717
0.00374607
0.00778304
0.0124082
0.0211537
-0.00494116
-0.00497604
-0.00503062
-0.00517999
-0.0053806
-0.00556437
-0.00568209
-0.0056964
-0.00558946
-0.00535894
-0.00501648
-0.00457514
-0.00405067
-0.00343473
-0.00266125
-0.00163292
-4.27377e-05
0.00355575
0.00761216
0.022576
-0.00561752
-0.00625233
-0.00624234
-0.00658382
-0.00682998
-0.00703572
-0.00716318
-0.007187
-0.0070985
-0.00690007
-0.00662545
-0.00631872
-0.0060706
-0.00599192
-0.00624828
-0.00703136
-0.00925316
-0.00781118
-0.00557901
0.019159
-0.00871899
-0.00640436
-0.00640683
-0.00653233
-0.00703623
-0.00756434
-0.00801335
-0.00829212
-0.00838217
-0.00827915
-0.00806934
-0.00780778
-0.0077168
-0.00797812
-0.00923799
-0.011453
-0.0177523
-0.0193769
-0.0169585
0.0234633
-0.00589863
-0.00915865
-0.00896243
-0.00996485
-0.0104014
-0.0107597
-0.0109601
-0.010956
-0.0107877
-0.010425
-0.0100024
-0.00960908
-0.00947653
-0.0100129
-0.0121913
-0.0154243
-0.0249936
-0.0250633
-0.0117594
0.0569325
-0.0294449
-0.00538482
-0.0053967
-0.00595411
-0.0068388
-0.00785583
-0.00877631
-0.00935852
-0.00970002
-0.009621
-0.00955608
-0.00920924
-0.00939613
-0.0096108
-0.0109736
-0.0113566
-0.00967909
0.0082032
0.0613173
0.183042
3.62324e-05
7.30936e-06
3.83193e-05
9.96212e-05
0.000196733
0.000328955
0.000494972
0.000692922
0.000919949
0.00117197
0.00144347
0.00172734
0.00201481
0.00229557
0.00255801
0.00278976
0.00297824
0.00311181
0.00319017
0.0031709
6.50904e-05
3.47395e-05
6.58559e-05
0.000124481
0.000217591
0.000344903
0.000505445
0.000697682
0.000919066
0.00116581
0.00143263
0.00171258
0.00199722
0.00227626
0.00253801
0.00276995
0.0029592
0.00309393
0.00317498
0.00315438
3.209e-05
-2.45438e-06
2.76861e-05
8.49343e-05
0.000177021
0.00030384
0.000464723
0.000658494
0.000882958
0.00113464
0.00140855
0.00169817
0.00199458
0.00228723
0.00256379
0.00281068
0.00301353
0.00315873
0.00324671
0.00322281
-3.55072e-05
-7.38813e-05
-4.48292e-05
1.10409e-05
0.00010239
0.000229467
0.000392088
0.000589624
0.000820434
0.00108156
0.0013684
0.00167464
0.00199156
0.00230796
0.00261029
0.00288324
0.00311003
0.00327402
0.0033746
0.00334911
-0.000144194
-0.000187114
-0.000159321
-0.000104769
-1.36586e-05
0.000114745
0.000280913
0.00048495
0.00072598
0.00100178
0.00130839
0.00163979
0.00198736
0.00233932
0.00268074
0.00299371
0.0032578
0.00345155
0.00357224
0.00354607
-0.000295148
-0.000343778
-0.000317624
-0.000264762
-0.000173964
-4.38605e-05
0.000126875
0.000339321
0.000593631
0.000888609
0.00122122
0.00158616
0.00197519
0.00237602
0.00277208
0.00314223
0.00346086
0.00369922
0.00385067
0.00382535
-0.000489994
-0.000545807
-0.000522004
-0.000471805
-0.000382184
-0.000250965
-7.57196e-05
0.000145892
0.000415384
0.000732982
0.00109705
0.00150345
0.00194503
0.00240939
0.0028785
0.00332747