/*--------------------------------*- C++ -*----------------------------------*\
  =========                 |
  \\      /  F ield         | OpenFOAM: The Open Source CFD Toolbox
   \\    /   O peration     | Website:  https://openfoam.org
    \\  /    A nd           | Version:  10
     \\/     M anipulation  |
\*---------------------------------------------------------------------------*/
FoamFile
{
    format      ascii;
    class       surfaceScalarField;
    location    "1.55";
    object      phi;
}
// * * * * * * * * * * * * * * * * * * * * * * * * * * * * * * * * * * * * * //

dimensions      [0 3 -1 0 0 0 0];

internalField   nonuniform List<scalar> 
760
(
-1.42473e-05
1.42473e-05
-3.31549e-05
1.89075e-05
-5.17298e-05
1.8575e-05
-6.90537e-05
1.73239e-05
-8.46741e-05
1.56204e-05
-9.82112e-05
1.35371e-05
-0.000109334
1.11226e-05
-0.000117761
8.42722e-06
-0.000123265
5.50429e-06
-0.000125675
2.40958e-06
-0.000124878
-7.97179e-07
-0.000120826
-4.05153e-06
-0.000113548
-7.2785e-06
-0.000103151
-1.03963e-05
-8.98379e-05
-1.33135e-05
-7.39069e-05
-1.5931e-05
-5.57625e-05
-1.81444e-05
-3.59441e-05
-1.98184e-05
-1.55443e-05
-2.03998e-05
-1.55443e-05
-1.95784e-05
3.38258e-05
-4.46792e-05
4.40083e-05
-6.92776e-05
4.31734e-05
-9.21934e-05
4.02397e-05
-0.000112819
3.62459e-05
-0.000130651
3.13693e-05
-0.000145258
2.57298e-05
-0.000156281
1.94495e-05
-0.000163431
1.26544e-05
-0.000166493
5.47225e-06
-0.000165343
-1.94779e-06
-0.000159916
-9.47876e-06
-0.000150259
-1.69351e-05
-0.00013652
-2.41356e-05
-0.000118961
-3.08724e-05
-9.79733e-05
-3.69184e-05
-7.40863e-05
-4.20314e-05
-4.80093e-05
-4.58954e-05
-2.11317e-05
-4.72774e-05
-3.6676e-05
-2.09388e-05
5.47646e-05
-4.77574e-05
7.08269e-05
-7.4005e-05
6.9421e-05
-9.84361e-05
6.46707e-05
-0.000120412
5.82219e-05
-0.000139407
5.03638e-05
-0.000154971
4.12945e-05
-0.000166734
3.12127e-05
-0.0001744
2.032e-05
-0.000177751
8.82285e-06
-0.000176626
-3.07287e-06
-0.000170966
-1.51381e-05
-0.000160802
-2.70988e-05
-0.000146265
-3.8673e-05
-0.000127608
-4.95292e-05
-0.000105226
-5.93006e-05
-7.96673e-05
-6.75903e-05
-5.16847e-05
-7.3878e-05
-2.27698e-05
-7.61923e-05
-5.94458e-05
-2.23395e-05
7.71041e-05
-5.09752e-05
9.94626e-05
-7.89763e-05
9.74221e-05
-0.000105018
9.07121e-05
-0.000128428
8.16327e-05
-0.000148664
7.05991e-05
-0.000165266
5.78963e-05
-0.000177857
4.38041e-05
-0.000186136
2.85995e-05
-0.000189874
1.25602e-05
-0.000188903
-4.04373e-06
-0.000183124
-2.09167e-05
-0.000172541
-3.76822e-05
-0.000157248
-5.39657e-05
-0.000137469
-6.93082e-05
-0.000113581
-8.31888e-05
-8.6143e-05
-9.50283e-05
-5.596e-05
-0.000104061
-2.46672e-05
-0.000107485
-8.4113e-05
-2.4274e-05
0.000101378
-5.53981e-05
0.000130587
-8.57955e-05
0.00012782
-0.000114028
0.000118944
-0.00013938
0.000106985
-0.000161287
9.2506e-05
-0.000179283
7.58926e-05
-0.000192992
5.75127e-05
-0.00020211
3.77179e-05
-0.0002064
1.68496e-05
-0.000205676
-4.76769e-06
-0.000199793
-2.67995e-05
-0.000188706
-4.87692e-05
-0.000172452
-7.02197e-05
-0.000151197
-9.05637e-05
-0.000125278
-0.000109107
-9.52575e-05
-0.000125049
-6.20059e-05
-0.000137313
-2.73675e-05
-0.000142124
-0.00011148
-2.68408e-05
0.000128219
-6.12485e-05
0.000164994
-9.47892e-05
0.00016136
-0.000125872
0.000150027
-0.000153729
0.000134842
-0.000177775
0.000116552
-0.000197547
9.56649e-05
-0.00021268
7.26456e-05
-0.000222881
4.79184e-05
-0.000227908
2.18765e-05
-0.000227558
-5.11754e-06
-0.000221623
-3.27345e-05
-0.000209987
-6.04054e-05
-0.000192594
-8.76123e-05
-0.000169512
-0.000113646
-0.000141002
-0.000137618
-0.000107597
-0.000158454
-7.02417e-05
-0.000174667
-3.10671e-05
-0.000181298
-0.000142548
-3.0134e-05
0.000158353
-6.87329e-05
0.000203593
-0.000106249
0.000198877
-0.000140896
0.000184674
-0.000171846
0.000165792
-0.000198503
0.000143209
-0.000220426
0.000117589
-0.000237285
8.95046e-05
-0.000248817
5.945e-05
-0.000254791
2.78508e-05
-0.000254993
-4.91599e-06
-0.000249131
-3.85963e-05
-0.000236988
-7.25485e-05
-0.000218369
-0.000106232
-0.000193177
-0.000138837
-0.000161525
-0.00016927
-0.000123863
-0.000196116
-8.11938e-05
-0.000217337
-3.60232e-05
-0.000226469
-0.000178571
-3.42877e-05
0.000192641
-7.8138e-05
0.000247444
-0.000120572
0.000241311
-0.000159556
0.000223658
-0.000194201
0.000200436
-0.000223926
0.000172935
-0.000248348
0.000142011
-0.00026721
0.000108366
-0.000280315
7.25548e-05
-0.000287469
3.50053e-05
-0.000288463
-3.92233e-06
-0.000282904
-4.41557e-05
-0.000270436
-8.50163e-05
-0.000250653
-0.000126014
-0.000223203
-0.000166287
-0.000187927
-0.000204546
-0.000145077
-0.000238966
-9.56518e-05
-0.000266762
-4.26368e-05
-0.000279484
-0.000221207
-3.95008e-05
0.000232141
-8.98756e-05
0.000297818
-0.000138311
0.000289746
-0.000182467
0.000267813
-0.000221406
0.000239376
-0.000254609
0.000206138
-0.000281812
0.000169213
-0.000302895
0.000129449
-0.000317784
8.74436e-05
-0.000326365
4.35864e-05
-0.000328465
-1.8225e-06
-0.00032358
-4.90408e-05
-0.000311178
-9.74184e-05
-0.000290546
-0.000146645
-0.000260931
-0.000195903
-0.000221715
-0.000243761
-0.000172738
-0.000287943
-0.00011483
-0.000324671
-5.15567e-05
-0.000342757
-0.000272764
-4.60751e-05
0.000278217
-0.000104549
0.000356292
-0.000160251
0.000345449
-0.000210467
0.00031803
-0.000254258
0.000283166
-0.000291246
0.000243126
-0.000321386
0.000199353
-0.000344794
0.000152858
-0.000361605
0.000104255
-0.000371846
5.3827e-05
-0.000375453
1.78431e-06
-0.000371792
-5.27017e-05
-0.000360143
-0.000109067
-0.000339374
-0.000167415
-0.000308117
-0.00022716
-0.000265005
-0.000286873
-0.000209084
-0.000343864
-0.000140641
-0.000393114
-6.38824e-05
-0.000419516
-0.000336647
-5.44877e-05
0.000332704
-0.000123062
0.000424867
-0.000187522
0.000409908
-0.000244716
0.000375223
-0.000293798
0.000332249
-0.000334683
0.00028401
-0.000367696
0.000232366
-0.000393336
0.000178498
-0.000412074
0.000122993
-0.0004242
6.5953e-05
-0.000429673
7.25696e-06
-0.000428053
-5.43217e-05
-0.000418258
-0.000118862
-0.000398656
-0.000187017
-0.000367018
-0.000258797
-0.000320763
-0.000333128
-0.000257511
-0.000407116
-0.000176201
-0.000474424
-8.15849e-05
-0.000514132
-0.000418232
-6.55244e-05
0.000398229
-0.000146805
0.000506148
-0.000221782
0.000484885
-0.000286825
0.000440267
-0.000341401
0.000386825
-0.000385952
0.000328561
-0.000421409
0.000267824
-0.000448856
0.000205945
-0.00046927
0.000143407
-0.000483321
8.00043e-05
-0.000491213
1.5149e-05
-0.000492629
-5.29057e-05
-0.000486284
-0.000125206
-0.000469988
-0.000203314
-0.000440408
-0.000288377
-0.000393125
-0.000380412
-0.000323248
-0.000476993
-0.000226748
-0.000570924
-0.000108442
-0.000632437
-0.000526674
-8.05453e-05
0.000478774
-0.000177975
0.000603578
-0.000265507
0.000572417
-0.000339072
0.000513832
-0.00039889
0.000446643
-0.00044631
0.00037598
-0.000483206
0.00030472
-0.000511527
0.000234266
-0.000532976
0.000164856
-0.000548782
9.58104e-05
-0.000559545
2.59118e-05
-0.000565225
-4.72256e-05
-0.000564518
-0.000125914
-0.000554768
-0.000213063
-0.000531442
-0.000311703
-0.000487675
-0.000424178
-0.000414448
-0.00055022
-0.000301415
-0.000683957
-0.000152279
-0.000781574
-0.000678952
-0.000102077
0.000580851
-0.000220185
0.000721686
-0.00032245
0.000674681
-0.00040468
0.000596062
-0.000468673
0.000510635
-0.000517243
0.00042455
-0.000553714
0.000341191
-0.000581248
0.0002618
-0.000602512
0.000186119
-0.000619504
0.000112803
-0.000633375
3.97831e-05
-0.000644617
-3.59836e-05
-0.000652282
-0.000118249
-0.000653633
-0.000211713
-0.000643228
-0.000322108
-0.00061146
-0.000455946
-0.000543771
-0.000617909
-0.000416632
-0.000811095
-0.000231422
-0.000966784
-0.000910375
-0.000133776
0.000714627
-0.000278638
0.000866548
-0.000398042
0.000794085
-0.000488142
0.000686162
-0.000553847
0.000576341
-0.00060043
0.000471133
-0.00063339
0.000374152
-0.000657494
0.000285904
-0.000676563
0.000205188
-0.000693507
0.000129747
-0.000710285
5.65609e-05
-0.000728115
-1.81536e-05
-0.00074711
-9.92533e-05
-0.000765301
-0.000193522
-0.000777576
-0.000309834
-0.000771956
-0.000461566
-0.000729012
-0.000660853
-0.000600332
-0.000939776
-0.000379127
-0.00118799
-0.0012895
-0.000195606
0.000910233
-0.000367689
0.00103863
-0.00050246
0.000928856
-0.000595993
0.000779694
-0.000658261
0.000638609
-0.000697478
0.00051035
-0.000722107
0.000398781
-0.000738837
0.000302634
-0.000752716
0.000219067
-0.000767546
0.000144576
-0.000786258
7.52735e-05
-0.000810492
6.08034e-06
-0.000843139
-6.66063e-05
-0.000883746
-0.000152915
-0.000930831
-0.000262749
-0.000970494
-0.000421903
-0.000989156
-0.000642191
-0.00088965
-0.00103928
-0.000660035
-0.0014176
-0.00194954
-0.000239268
0.0011495
-0.000473154
0.00127252
-0.000637916
0.00109362
-0.000733879
0.000875657
-0.000784243
0.000688973
-0.000806708
0.000532814
-0.000815054
0.000407127
-0.000818226
0.000305807
-0.000822146
0.000222987
-0.000830958
0.000153388
-0.000847894
9.22098e-05
-0.000877261
3.54479e-05
-0.000922182
-2.16861e-05
-0.000985306
-8.97908e-05
-0.00107855
-0.000169502
-0.00117972
-0.000320738
-0.001322
-0.000499913
-0.00130386
-0.00105742
-0.00109173
-0.00162973
-0.00304127
-0.000554184
0.00170369
-0.000737306
0.00145564
-0.000844928
0.00120124
-0.000893366
0.000924096
-0.000893635
0.000689241
-0.000872187
0.000511367
-0.000844527
0.000379467
-0.000818975
0.000280255
-0.000800946
0.000204957
-0.000794154
0.000146596
-0.000802213
0.000100269
-0.000828679
6.19139e-05
-0.000879746
2.93806e-05
-0.000962203
-7.33366e-06
-0.00109398
-3.77254e-05
-0.00126292
-0.000151799
-0.00147031
-0.000292527
-0.0015305
-0.000997224
-0.00121615
-0.00194408
-0.00425742
-0.00107706
0.00278075
-0.000996985
0.00137556
-0.000806566
0.00101082
-0.000587053
0.000704584
-0.000375844
0.000478032
-0.000195389
0.000330912
-5.19467e-05
0.000236025
5.67551e-05
0.000171553
0.000136114
0.000125598
0.000190707
9.20028e-05
0.000223864
6.71127e-05
0.000238702
4.70757e-05
0.000236363
3.17194e-05
0.000214442
1.45878e-05
0.000193492
-1.67756e-05
0.000119856
-7.81628e-05
0.000127936
-0.000300607
-7.69269e-05
-0.000792361
2.23435e-05
-0.00204335
-0.00423508
0.00278075
0.00415631
0.00516713
0.00587171
0.00634975
0.00668066
0.00691668
0.00708824
0.00721383
0.00730584
0.00737295
0.00742002
0.00745174
0.00746633
0.00744956
0.00737139
0.00707079
0.00627843
0.00423508
)
;

boundaryField
{
    movingWall
    {
        type            calculated;
        value           uniform 0;
    }
    fixedWalls
    {
        type            calculated;
        value           uniform 0;
    }
    frontAndBack
    {
        type            empty;
        value           nonuniform List<scalar> 0();
    }
}


// ************************************************************************* //
