/*--------------------------------*- C++ -*----------------------------------*\
  =========                 |
  \\      /  F ield         | OpenFOAM: The Open Source CFD Toolbox
   \\    /   O peration     | Website:  https://openfoam.org
    \\  /    A nd           | Version:  10
     \\/     M anipulation  |
\*---------------------------------------------------------------------------*/
FoamFile
{
    format      ascii;
    class       surfaceScalarField;
    location    "4.875";
    object      phi;
}
// * * * * * * * * * * * * * * * * * * * * * * * * * * * * * * * * * * * * * //

dimensions      [0 3 -1 0 0 0 0];

internalField   nonuniform List<scalar> 
928
(
0.0972659
0.0027341
0.103702
-0.0064358
0.106761
-0.00305957
-0.00997829
0.11674
0.0959789
0.00675524
0.106023
-0.0164798
0.103855
-0.000891726
-0.0190262
0.112903
0.095465
0.0112902
0.107377
-0.0283913
0.103904
0.00258107
-0.0383649
0.123242
0.101419
0.00987084
0.0945297
-0.0215017
0.0971879
-7.70803e-05
0.144214
-0.0853908
0.110884
0.00585584
-0.0168324
0.127716
0.108795
0.00996341
-0.0420766
0.13404
0.124724
0.00848145
-0.0449105
0.127558
0.152695
0.107785
0.127606
0.000110371
0.128749
-0.00114279
0.130441
-0.00169229
-0.00131029
0.131751
0.133526
0.000623932
0.13463
-0.00224688
0.135528
-0.00259038
-0.00164952
0.135867
0.132498
-0.00431602
0.140899
-0.0106473
0.133558
0.00475039
-0.00107648
0.132985
0.11051
-0.00704132
0.112705
-0.0128418
0.103788
0.0136671
0.097958
0.00475339
0.133234
-0.00148308
0.133545
-0.000311142
0.133973
-0.000427721
0.132966
0.0010073
0.131618
0.00134769
0.128704
0.00291365
0.125719
0.00298533
0.122533
0.00318621
0.119682
0.00285065
0.117641
0.00204128
0.116208
0.00143266
0.117392
-0.00118333
0.118883
-0.00149141
0.121441
-0.00255843
0.123214
-0.00177244
0.125489
-0.00227553
0.126809
-0.00131934
0.127273
-0.000463695
0.126566
0.000706465
0.124375
0.00219086
0.122265
0.00211012
0.11969
0.00257497
0.118254
0.0014365
0.116827
0.0014263
0.116265
0.00056278
0.11585
0.000414819
0.115419
0.000430717
0.114663
0.000756025
0.112678
0.00198447
0.110276
0.0024024
0.106811
0.0034648
0.103881
0.00292988
0.101145
0.0027368
0.0998284
0.00131617
0.0993915
0.000436923
0.100229
-0.000837918
0.101888
-0.00165825
0.103273
-0.00138573
0.10488
-0.00160629
7.72606e-05
0.136981
-0.00259648
0.137752
-0.00108257
0.138677
-0.00135273
0.138349
0.00133571
0.136869
0.00282747
0.134819
0.00496426
0.132735
0.00506852
0.129675
0.00624688
0.126407
0.00611781
0.123849
0.00459996
0.122596
0.00268584
0.123115
-0.00170258
0.124338
-0.00271455
0.12699
-0.00521052
0.129332
-0.00411437
0.132292
-0.00523545
0.13431
-0.00333729
0.135616
-0.0017696
0.135751
0.00057173
0.13471
0.00323124
0.133577
0.00324281
0.131431
0.00472187
0.130698
0.00216922
0.129345
0.00277914
0.129679
0.000228326
0.129875
0.000219232
0.130381
-7.52588e-05
0.130437
0.000699712
0.129146
0.00327623
0.128104
0.00344426
0.125341
0.00622765
0.123265
0.00500545
0.120479
0.00552291
0.118461
0.00333442
0.117554
0.00134417
0.117412
-0.000696375
0.118677
-0.00292276
0.119663
-0.0023726
0.121683
-0.00362594
-0.000997044
0.133898
-0.00350914
0.134516
-0.0017007
0.137182
-0.00401932
0.136925
0.00159263
0.135047
0.00470631
0.133918
0.00609296
0.129715
0.00927146
0.12494
0.0110221
0.121624
0.00943348
0.11924
0.00698354
0.117963
0.00396353
0.116866
-0.000605465
0.117646
-0.00349451
0.119174
-0.00673884
0.121745
-0.00668516
0.12335
-0.00684084
0.12464
-0.00462701
0.126206
-0.00333561
0.126862
-8.41669e-05
0.127255
0.00283769
0.126695
0.00380297
0.126811
0.00460644
0.126426
0.00255356
0.126703
0.00250228
0.126966
-3.461e-05
0.127765
-0.000580082
0.129471
-0.00178133
0.13139
-0.00121938
0.133364
0.00130268
0.133513
0.00329554
0.132577
0.00716373
0.130713
0.00686874
0.128613
0.00762296
0.12676
0.00518823
0.125162
0.00294177
0.123392
0.0010737
0.122302
-0.00183293
0.121564
-0.00163416
0.121735
-0.00379739
-0.00144345
0.102636
-0.0081871
0.10216
-0.00122457
0.107973
-0.00983298
0.105328
0.00423762
0.111184
-0.00114899
0.118346
-0.0010693
0.119137
0.00848021
0.122392
0.00776776
0.124483
0.00734191
0.124381
0.00708611
0.121416
0.00692802
0.11385
0.00696032
0.105579
0.00477641
0.0968634
0.00197721
0.0908037
-0.000625462
0.0868169
-0.00285403
0.0858703
-0.00368049
0.0861157
-0.00358097
0.0876117
-0.00158017
0.0885194
0.00192998
0.088402
0.00392035
0.0873235
0.00568492
0.0850333
0.0048438
0.0834626
0.00407301
0.0825666
0.000861383
0.084699
-0.00271254
0.0869704
-0.00405275
0.092089
-0.00633798
0.0980649
-0.0046732
0.103272
-0.00191171
0.109284
0.0011517
0.111982
0.00417104
0.112405
0.00719965
0.109033
0.00856023
0.103265
0.0087104
0.0962633
0.00807496
0.0896001
0.00483025
0.0862529
0.0017131
0.0850725
-0.00261699
-0.00271144
0.109006
0.000865234
0.0876147
-0.000110781
0.0854111
0.00212656
2.02862e-05
0.111688
-0.0108224
0.0893229
0.0222539
0.0905862
0.000863244
0.0906065
-0.0112998
0.00425849
0.0178659
-0.0420075
0.000664932
0.030868
0.0114317
-0.00601336
-0.0045941
0.0088526
-0.028403
-0.0181986
-0.00762705
0.010092
0.0188073
-0.0150027
0.011925
-0.0261254
-0.00718466
0.0178851
0.00962196
-0.0266396
0.0160438
-0.00218419
0.015603
-0.000708189
0.0234778
-0.00894408
0.0298751
0.00208285
0.028553
0.00908987
0.0256922
0.0102027
0.0236887
0.0090896
0.0212889
0.00932787
0.0169702
0.011279
0.0109467
0.0107999
0.00780432
0.00511961
0.0079613
-0.000782447
0.00949313
-0.00438585
0.0102313
-0.00441869
0.0111065
-0.00445613
0.0130716
-0.00354524
0.0153489
-0.000347353
0.0175078
0.00176143
0.0189353
0.00425747
0.0202873
0.00349174
0.0230401
0.0013202
0.0255501
-0.0016486
0.0287034
-0.00586586
0.0326762
-0.00802547
0.0363903
-0.0100521
0.040508
-0.00879092
0.0439288
-0.00533251
0.0462757
-0.00119521
0.0471096
0.00333708
0.0462227
0.00808662
0.045371
0.0094119
0.0432367
0.0108448
0.043122
0.0081896
0.0437733
0.00417895
0.0441231
0.00136329
0.0463365
-0.00483034
-0.00480749
-0.00375321
-0.00356491
0.00839065
0.00574122
-0.00507365
-0.0131753
-0.00454107
-0.00271677
-0.000162276
-0.00508698
-0.00170876
-0.00739761
0.00219906
-0.00182497
0.00876434
0.0025246
0.0130799
0.00588719
0.0151594
0.00701007
0.0150469
0.00944031
0.017167
0.00915887
0.0201763
0.00779068
0.0220167
0.00327914
0.0215604
-0.000326134
0.019558
-0.00238348
0.0186485
-0.00350915
0.0187913
-0.00459898
0.0199129
-0.00466684
0.0223687
-0.00280309
0.0253329
-0.00120276
0.0284684
0.00112191
0.0316493
0.000310877
0.0349903
-0.0020208
0.0373085
-0.00396683
0.0374808
-0.00603815
0.0376999
-0.0082446
0.0368863
-0.00923846
0.035786
-0.00769061
0.0371606
-0.00670716
0.0380366
-0.00207113
0.0399035
0.00147015
0.0437945
0.00419566
0.0465147
0.00669169
0.0507042
0.00665519
0.0544709
0.00442296
0.0573194
0.00133044
0.0593329
-0.000650224
0.0591743
-0.00467177
-0.00431485
0.10102
-0.0118426
0.0911656
0.0321085
0.0956166
-0.00358772
0.041129
0.145094
0.0955678
-0.00741032
0.110312
0.0173645
0.104724
0.00200005
0.0193773
0.126476
0.0955371
-0.0029474
0.106714
0.00618771
0.104571
0.00414316
0.00911854
0.114829
0.0970526
0.10324
0.107383
0.116502
0.150261
-0.00516743
0.0488483
0.101413
0.12945
-0.00814135
0.04173
0.136568
0.111655
-0.00496734
0.0166302
0.136755
0.111535
0.128165
0.10633
0.00393618
0.0844017
0.00372916
0.0922977
0.0021961
-0.0030449
0.0803399
0.139661
0.000843264
0.143316
7.43777e-05
0.145087
0.00042439
0.0021417
0.139901
0.137943
-0.000344623
0.137777
0.000240956
0.137523
0.000678375
0.00099668
0.138668
0.12782
0.128061
0.12874
0.129736
0.078506
-0.00173099
0.0859339
-0.00168673
0.0748228
-0.00206417
0.0741679
-0.0020619
0.0712375
-0.00215656
0.0650351
-0.00119524
0.0650534
-0.00184324
0.0666826
0.000895389
0.0705091
0.00206066
0.075314
0.00220515
0.0816966
0.00305772
0.0893393
0.00151617
0.0953637
0.00176635
0.101537
-0.00289442
0.104398
-0.00318677
0.107504
-0.00548959
0.107982
-0.00398712
0.106297
-0.00291442
0.103642
-0.00201153
0.100988
-0.000149056
0.100686
-0.000900586
0.101354
0.000453889
0.104715
-0.0030507
0.106329
-0.00363447
0.109682
-0.00731974
0.111158
-0.0075143
0.10988
-0.0069665
0.106636
-0.00599435
0.101473
-0.0025277
0.0963396
-0.00157365
0.0913261
0.0029423
0.08958
0.00321625
0.0887304
0.00504527
0.0918919
0.00353024
0.096525
0.00202204
0.100878
6.98822e-05
0.107173
-0.00496432
0.111234
-0.00471165
0.115126
-0.00856392
-0.00644305
0.139082
-0.000912464
0.138017
-0.000621847
0.138511
-0.00255784
0.1377
-0.00125087
0.137758
-0.00221465
0.136581
-1.79718e-05
0.134718
1.96173e-05
0.135196
0.000417701
0.135394
0.00186272
0.136941
0.000657867
0.138427
0.00157213
0.141137
-0.00119409
0.143836
-0.000932678
0.144397
-0.00345523
0.14447
-0.00326029
0.142888
-0.00390693
0.142122
-0.0032216
0.141188
-0.00198068
0.14048
-0.00130341
0.139566
0.000764878
0.138832
-0.000166718
0.138599
0.000687197
0.138051
-0.0025023
0.136851
-0.00243476
0.134293
-0.00476205
0.131558
-0.00477864
0.128936
-0.00434468
0.12676
-0.00381843
0.12482
-0.00058781
0.122986
0.000260608
0.122422
0.00350623
0.122663
0.00297493
0.123851
0.00385776
0.125269
0.00211224
0.127372
-8.08794e-05
0.12906
-0.00161837
0.129016
-0.00492077
0.128702
-0.00439761
0.126477
-0.00633881
-0.00428737
0.137647
0.00010854
0.136934
9.08762e-05
0.136083
-0.00170661
0.135719
-0.000887194
0.134622
-0.00111747
0.134815
-0.000210854
0.134908
-7.36872e-05
0.135252
7.32321e-05
0.13658
0.000535559
0.136944
0.00029345
0.137997
0.00051952
0.137567
-0.000764017
0.137685
-0.00105102
0.136295
-0.00206518
0.13494
-0.00190577
0.133198
-0.00216444
0.131569
-0.00159302
0.130846
-0.00125734
0.130116
-0.000573924
0.130622
0.000258876
0.130415
4.05554e-05
0.131041
6.14381e-05
0.129659
-0.00112043
0.128714
-0.00149013
0.126618
-0.00266568
0.12441
-0.00257091
0.122532
-0.00246648
0.120375
-0.00166112
0.120056
-0.000268905
0.119958
0.000358922
0.121526
0.00193803
0.12293
0.00157056
0.124895
0.00189314
0.126456
0.000550694
0.126742
-0.000366817
0.126735
-0.00161133
0.124777
-0.00296238
0.123542
-0.00316233
0.120961
-0.00375826
-0.00204867
0.129845
0.129936
0.128229
0.127342
0.126224
0.126014
0.12594
0.126013
0.126549
0.126842
0.127362
0.126598
0.125547
0.123481
0.121576
0.119411
0.117818
0.116561
0.115987
0.116246
0.116286
0.116348
0.115227
0.113737
0.111072
0.108501
0.106034
0.104373
0.104104
0.104463
0.106401
0.107972
0.109865
0.110415
0.110049
0.108437
0.105475
0.102313
0.0985543
)
;

boundaryField
{
    inlet
    {
        type            calculated;
        value           nonuniform List<scalar> 10(-0.1 -0.1 -0.1 -0.1 -0.1 -0.1 -0.1 -0.1 -0.1 -0.1);
    }
    outlet
    {
        type            calculated;
        value           nonuniform List<scalar> 10(0.104802 0.122757 0.122181 0.0863405 0.0484325 0.0586817 0.117255 0.124321 0.118722 0.0965057);
    }
    obstacle
    {
        type            calculated;
        value           uniform 0;
    }
    upperWall
    {
        type            calculated;
        value           uniform 0;
    }
    lowerWall
    {
        type            calculated;
        value           uniform 0;
    }
    frontAndBack
    {
        type            empty;
        value           nonuniform List<scalar> 0();
    }
}


// ************************************************************************* //
