/*--------------------------------*- C++ -*----------------------------------*\
  =========                 |
  \\      /  F ield         | OpenFOAM: The Open Source CFD Toolbox
   \\    /   O peration     | Website:  https://openfoam.org
    \\  /    A nd           | Version:  10
     \\/     M anipulation  |
\*---------------------------------------------------------------------------*/
FoamFile
{
    format      ascii;
    class       volScalarField;
    location    "4.45";
    object      p;
}
// * * * * * * * * * * * * * * * * * * * * * * * * * * * * * * * * * * * * * //

dimensions      [0 2 -2 0 0 0 0];

internalField   nonuniform List<scalar> 
400
(
-2.01302e-08
-2.76992e-05
-2.73486e-06
5.07725e-05
0.00013905
0.000262806
0.000422813
0.000619691
0.000853253
0.00112196
0.00142236
0.00174851
0.00209139
0.00243854
0.00277407
0.00307931
0.00333359
0.00351674
0.00362478
0.00360881
2.81426e-05
-4.63906e-07
2.65436e-05
7.8482e-05
0.000163082
0.0002817
0.000435545
0.000625618
0.000852107
0.00111389
0.00140794
0.00172842
0.00206751
0.00241272
0.00274827
0.00305533
0.00331264
0.00349977
0.00361392
0.00359661
-7.66409e-07
-3.48131e-05
-9.44972e-06
3.9601e-05
0.000120864
0.000235944
0.000386482
0.000574084
0.000799659
0.00106286
0.00136146
0.00169109
0.00204365
0.00240689
0.00276436
0.00309559
0.0033764
0.00358232
0.0037092
0.00368659
-6.47111e-05
-0.000103123
-8.01266e-05
-3.49982e-05
4.17214e-05
0.000152042
0.0002983
0.000483033
0.000708274
0.000974985
0.0012823
0.00162672
0.0020021
0.00239621
0.00279167
0.0031651
0.0034874
0.00372727
0.00387759
0.0038528
-0.000169435
-0.000212433
-0.00019267
-0.000152556
-8.15735e-05
2.28111e-05
0.000163839
0.000345284
0.000570725
0.000842975
0.00116327
0.00153009
0.00193837
0.00237742
0.00282909
0.00326663
0.00365398
0.00394845
0.004137
0.00411281
-0.000314826
-0.000363266
-0.000347742
-0.000314135
-0.000250759
-0.000154477
-2.09733e-05
0.000155043
0.000379125
0.000656545
0.000991456
0.00138591
0.00183577
0.00233476
0.00286405
0.00339313
0.00387695
0.00425576
0.00450481
0.00448647
-0.000500574
-0.000555612
-0.000545545
-0.000520491
-0.000467491
-0.000382791
-0.000260892
-9.4762e-05
0.000123524
0.000402354
0.000749744
0.00117177
0.00167099
0.002244
0.00287447
0.00352924
0.00415255
0.0046609
0.00500592
0.00500677
-0.000726605
-0.000789619
-0.000786458
-0.000772559
-0.000733646
-0.000665449
-0.000561295
-0.000412315
-0.000207924
6.39922e-05
0.000416472
0.000862009
0.00141086
0.00206813
0.00282357
0.00364509
0.00446651
0.00517451
0.00567424
0.00572892
-0.000992835
-0.00106534
-0.00107061
-0.00107089
-0.00105061
-0.00100527
-0.000927213
-0.000805857
-0.00062791
-0.000377146
-3.44554e-05
0.000421114
0.00100924
0.00175155
0.00265022
0.00368326
0.00477991
0.00579479
0.00655173
0.0067487
-0.00129916
-0.00138268
-0.00139769
-0.00141523
-0.00141867
-0.00140371
-0.0013622
-0.0012823
-0.00114843
-0.000940479
-0.000632901
-0.000194264
0.000412319
0.00121446
0.00225498
0.00353545
0.00500026
0.00648239
0.00768526
0.00823825
-0.00164572
-0.00174163
-0.00176683
-0.00180418
-0.00183629
-0.00185981
-0.00186682
-0.00184516
-0.00177808
-0.00164293
-0.00140927
-0.00103687
-0.000475226
0.000332515
0.00147547
0.00299981
0.00491884
0.00709314
0.00908119
0.0104992
-0.00203362
-0.00214271
-0.00217665
-0.00223478
-0.00229937
-0.0023689
-0.00243675
-0.00249172
-0.00251782
-0.00249255
-0.00238402
-0.00214642
-0.00171345
-0.000992367
0.000101156
0.00174219
0.00408587
0.00716715
0.0104806
0.0137206
-0.00246652
-0.00258827
-0.00262585
-0.0027025
-0.00280048
-0.00292137
-0.0030609
-0.00321019
-0.00335649
-0.00348171
-0.00355948
-0.0035501
-0.00339228
-0.00299361
-0.00223269
-0.000966311
0.00141256
0.00531789
0.0105331
0.0168641
-0.00295156
-0.00307815
-0.00310508
-0.00319268
-0.00332313
-0.00349973
-0.00371955
-0.00397729
-0.0042664
-0.00457806
-0.00489966
-0.00521249
-0.00548864
-0.00568442
-0.00575058
-0.00556766
-0.00487148
-0.00198362
0.00397874
0.0144901
-0.00351998
-0.00366318
-0.00366778
-0.00376116
-0.0039066
-0.00411969
-0.00440617
-0.00476837
-0.0052082
-0.00573004
-0.00634487
-0.00707326
-0.00795945
-0.00909669
-0.0107392
-0.0132725
-0.0169248
-0.0173322
-0.0119397
0.00362412
-0.00424934
-0.00418856
-0.00409997
-0.00412698
-0.00428598
-0.00456831
-0.00496333
-0.00546409
-0.0060743
-0.0068088
-0.00770387
-0.00883213
-0.0103473
-0.0124985
-0.0160108
-0.0218015
-0.0314005
-0.0369913
-0.0332342
-0.0109229
-0.00472188
-0.00516161
-0.00494899
-0.00505629
-0.00517101
-0.00541146
-0.00578713
-0.0063096
-0.00698992
-0.00784801
-0.00893483
-0.0103439
-0.0123386
-0.0151961
-0.0202401
-0.0278025
-0.0417599
-0.05108
-0.0481196
-0.0128532
-0.00799998
-0.00547768
-0.00497597
-0.00457949
-0.00469723
-0.00508384
-0.00567333
-0.00640895
-0.00729174
-0.00832146
-0.00957381
-0.0110887
-0.013275
-0.0161762
-0.0215416
-0.0293411
-0.0420357
-0.0486777
-0.0399463
0.0137376
-0.00480439
-0.00770421
-0.00681747
-0.00702603
-0.00685031
-0.00690295
-0.0071581
-0.00764226
-0.00834503
-0.00923503
-0.0103811
-0.0117184
-0.0137778
-0.0164194
-0.0215151
-0.028132
-0.0369746
-0.0339485
-0.00768461
0.0782497
-0.0295817
-0.00463203
-0.00344343
-0.00290427
-0.00295609
-0.00348633
-0.00436461
-0.00533502
-0.00650236
-0.00769163
-0.00920652
-0.0108532
-0.0131275
-0.0159262
-0.0193814
-0.02134
-0.0185121
0.00863008
0.0768718
0.216187
)
;

boundaryField
{
    movingWall
    {
        type            zeroGradient;
    }
    fixedWalls
    {
        type            zeroGradient;
    }
    frontAndBack
    {
        type            empty;
    }
}


// ************************************************************************* //
