/*--------------------------------*- C++ -*----------------------------------*\
  =========                 |
  \\      /  F ield         | OpenFOAM: The Open Source CFD Toolbox
   \\    /   O peration     | Website:  https://openfoam.org
    \\  /    A nd           | Version:  10
     \\/     M anipulation  |
\*---------------------------------------------------------------------------*/
FoamFile
{
    format      ascii;
    class       volScalarField;
    location    "6.225";
    object      p;
}
// * * * * * * * * * * * * * * * * * * * * * * * * * * * * * * * * * * * * * //

dimensions      [0 2 -2 0 0 0 0];

internalField   nonuniform List<scalar> 
400
(
4.71333e-09
-2.00342e-05
2.6171e-05
0.000115405
0.000254022
0.000443556
0.000686083
0.000983852
0.00133831
0.00174931
0.00221397
0.00272549
0.00327172
0.00383393
0.00438587
0.00489454
0.00532201
0.00563029
0.00581023
0.00579395
2.12643e-05
5.69489e-07
5.11795e-05
0.000140557
0.000276627
0.000461695
0.000698349
0.000989215
0.00133611
0.00173933
0.0021966
0.00270175
0.00324305
0.00380333
0.00435652
0.00486946
0.00530299
0.00561801
0.00580719
0.00578649
-3.10979e-05
-5.86268e-05
-9.698e-06
7.61938e-05
0.000207804
0.000387737
0.000619156
0.000905556
0.00124988
0.00165378
0.00211654
0.00263375
0.00319623
0.0037864
0.00437746
0.00493306
0.00540806
0.00575453
0.00596256
0.00592632
-0.000138042
-0.000170533
-0.000124478
-4.37862e-05
8.12333e-05
0.000253656
0.00047754
0.000757679
0.00109877
0.00150469
0.00197736
0.00251514
0.00311097
0.00375029
0.00440528
0.00503495
0.00558361
0.00598721
0.00623058
0.00617611
-0.000305452
-0.000342588
-0.000300946
-0.00022747
-0.000111486
5.06864e-05
0.000264232
0.00053561
0.000871828
0.00127985
0.00176543
0.00233128
0.00297441
0.00368394
0.00443222
0.00517284
0.00583641
0.00633311
0.00663529
0.00655278
-0.000532557
-0.0005748
-0.000539221
-0.000475421
-0.000371775
-0.000223973
-2.55939e-05
0.000231717
0.000557706
0.000963195
0.00145918
0.00205461
0.00275251
0.00355152
0.00442514
0.00532321
0.00615846
0.00680305
0.00720236
0.00707257
-0.000817326
-0.000865609
-0.000837943
-0.000786905
-0.000700025
-0.000572498
-0.000396765
-0.00016258
0.000142738
0.000534445
0.00103007
0.00164797
0.00240401
0.0032985
0.00432635
0.00543634
0.00652197
0.00740213
0.00796809
0.00776013
-0.00115729
-0.00121283
-0.00119513
-0.0011605
-0.00109586
-0.000996292
-0.000853501
-0.000655769
-0.000387795
-2.9961e-05
0.000442203
0.0010579
0.00184789
0.00283547
0.00403483
0.00541085
0.00685108
0.00811118
0.00897909
0.00865726
-0.00154929
-0.00161342
-0.00160767
-0.00159328
-0.00155699
-0.00149436
-0.00139727
-0.00125353
-0.0010464
-0.000753097
-0.000343116
0.000223794
0.000998305
0.00203664
0.00337635
0.00503547
0.00694693
0.00882856
0.0102491
0.00985411
-0.00198936
-0.00206343
-0.002071
-0.00208021
-0.00207814
-0.00206181
-0.00202447
-0.00195525
-0.00183839
-0.00165114
-0.00136078
-0.000920885
-0.000266186
0.000688419
0.00204133
0.00387766
0.00628929
0.00913762
0.0115587
0.0113782
-0.00247308
-0.00255822
-0.00257902
-0.00261358
-0.00265011
-0.00268823
-0.00272421
-0.00275073
-0.00275645
-0.00272412
-0.00262787
-0.00242833
-0.00206454
-0.00144632
-0.000454173
0.00109775
0.0035929
0.00751972
0.011576
0.0127887
-0.00299655
-0.00309319
-0.00312409
-0.00318255
-0.00325873
-0.00335601
-0.00347541
-0.0036157
-0.00377408
-0.00394568
-0.00412327
-0.00429749
-0.0044588
-0.00461181
-0.00480942
-0.0049749
-0.00418469
-0.000231829
0.0059913
0.0108594
-0.00355842
-0.00366633
-0.00370037
-0.00377669
-0.00388742
-0.00404166
-0.004247
-0.00451027
-0.00484127
-0.00525521
-0.0057779
-0.00645748
-0.00739168
-0.008801
-0.0112143
-0.0149307
-0.018281
-0.015985
-0.00827095
0.00188582
-0.00415721
-0.00426746
-0.00428464
-0.00436359
-0.00449859
-0.00470284
-0.00498783
-0.00536944
-0.00587128
-0.00653173
-0.00741836
-0.00865795
-0.0105074
-0.0134459
-0.0186272
-0.0266706
-0.0369617
-0.0366904
-0.0284053
-0.0128597
-0.00482535
-0.00494908
-0.00493352
-0.0050027
-0.00513455
-0.0053563
-0.00568781
-0.00615365
-0.00678918
-0.00765119
-0.00883901
-0.010527
-0.0131077
-0.0171712
-0.0242914
-0.034747
-0.0483996
-0.0506814
-0.0433529
-0.0248839
-0.00564294
-0.00557187
-0.00544482
-0.00542171
-0.0055296
-0.00577475
-0.00616261
-0.00670811
-0.00744475
-0.00843171
-0.0097784
-0.0116536
-0.0145269
-0.0188332
-0.0263511
-0.0366605
-0.0495579
-0.0517872
-0.0456396
-0.0238776
-0.00613827
-0.00657268
-0.00629576
-0.00632238
-0.00633529
-0.00648133
-0.00677744
-0.00725581
-0.0079529
-0.00891696
-0.010251
-0.0120527
-0.0147998
-0.0187474
-0.0252657
-0.0333483
-0.0424869
-0.0429296
-0.0357655
-0.00583896
-0.00951151
-0.00700325
-0.00639862
-0.00585334
-0.0058166
-0.00603768
-0.0064606
-0.00705132
-0.00782641
-0.008807
-0.010116
-0.0117439
-0.0141823
-0.0174603
-0.0223472
-0.0274311
-0.0323862
-0.0291744
-0.0163292
0.0300062
-0.00624496
-0.00924791
-0.00822315
-0.00827808
-0.00787328
-0.00768284
-0.00768011
-0.00790709
-0.00839465
-0.00913007
-0.0102181
-0.0116591
-0.0139007
-0.0167859
-0.0215004
-0.0256291
-0.0287966
-0.0164625
0.0115093
0.0904958
-0.0314054
-0.0063989
-0.00495085
-0.00424154
-0.0040833
-0.00434921
-0.00492215
-0.00562418
-0.00652224
-0.00753862
-0.00895213
-0.0105873
-0.0129262
-0.0154601
-0.0181208
-0.0174843
-0.0100925
0.0224167
0.0920149
0.226137
)
;

boundaryField
{
    movingWall
    {
        type            zeroGradient;
    }
    fixedWalls
    {
        type            zeroGradient;
    }
    frontAndBack
    {
        type            empty;
    }
}


// ************************************************************************* //
