/*--------------------------------*- C++ -*----------------------------------*\
  =========                 |
  \\      /  F ield         | OpenFOAM: The Open Source CFD Toolbox
   \\    /   O peration     | Website:  https://openfoam.org
    \\  /    A nd           | Version:  10
     \\/     M anipulation  |
\*---------------------------------------------------------------------------*/
FoamFile
{
    format      ascii;
    class       surfaceScalarField;
    location    "8.375";
    object      phi;
}
// * * * * * * * * * * * * * * * * * * * * * * * * * * * * * * * * * * * * * //

dimensions      [0 3 -1 0 0 0 0];

internalField   nonuniform List<scalar> 
928
(
0.0960731
0.00392685
0.103616
-0.00754258
0.106749
-0.00313302
-0.00955969
0.116308
0.0950124
0.00891444
0.106052
-0.0185819
0.102789
0.000129213
-0.0193121
0.112542
0.0961047
0.0128097
0.108124
-0.0306014
0.104252
0.00400172
-0.0394334
0.124373
0.102738
0.0100717
0.0938654
-0.0217288
0.0985413
-0.000674169
0.147167
-0.0880591
0.11106
0.00524799
-0.0156912
0.126752
0.108644
0.00914598
-0.0409956
0.133948
0.125786
0.00773275
-0.0440756
0.128866
0.1549
0.110824
0.126049
0.000702946
0.125863
0.000185725
0.127722
-0.00185918
-0.00190552
0.129628
0.133375
0.00127568
0.131644
0.00191728
0.133021
-0.00323654
-0.00425523
0.135371
0.130747
-0.000605388
0.133236
-0.000571805
0.133841
-0.00384116
-0.00458914
0.134175
0.100304
0.00991494
0.106141
-0.00640897
0.108207
-0.00590753
0.0991574
0.00446089
0.131834
-0.00220637
0.132836
-0.00100237
0.133305
-0.000468189
0.13268
0.000624715
0.131845
0.00083487
0.131265
0.000579877
0.130333
0.000932079
0.129406
0.000927427
0.128108
0.00129789
0.127164
0.000943881
0.125676
0.00148816
0.124239
0.00143644
0.122546
0.00169374
0.121016
0.00152904
0.119445
0.00157127
0.118328
0.00111717
0.117443
0.000885074
0.117239
0.000203903
0.117105
0.000133934
0.117521
-0.000415759
0.118103
-0.000582606
0.118491
-0.000387325
0.118578
-8.69887e-05
0.117638
0.000940079
0.116191
0.00144677
0.113292
0.00289925
0.110546
0.00274551
0.107212
0.00333466
0.105063
0.00214852
0.10335
0.00171307
0.102877
0.000473048
0.103878
-0.00100151
0.105289
-0.00141012
0.107883
-0.0025946
0.109486
-0.00160314
0.111458
-0.00197129
0.111573
-0.000115323
0.111205
0.000367392
0.109109
0.00209646
0.00315677
0.137675
-0.00451031
0.137947
-0.00127398
0.138197
-0.000718772
0.138504
0.000317676
0.138929
0.000409825
0.138684
0.000824649
0.137411
0.00220573
0.137089
0.00124891
0.136312
0.0020748
0.135737
0.00151889
0.134055
0.00317101
0.13302
0.00247134
0.131571
0.00314221
0.130731
0.00236885
0.129585
0.00271751
0.128652
0.00205016
0.127805
0.00173193
0.127245
0.00076373
0.127486
-0.000106854
0.127906
-0.000835044
0.129067
-0.00174373
0.129724
-0.00104466
0.13069
-0.00105338
0.130089
0.00154191
0.129641
0.00189433
0.12777
0.00477058
0.126046
0.00446885
0.123412
0.00596868
0.120804
0.00475675
0.118667
0.00385003
0.117465
0.00167491
0.118038
-0.00157421
0.118552
-0.00192384
0.121203
-0.00524619
0.122894
-0.00329431
0.125489
-0.00456543
0.127151
-0.00177736
0.127943
-0.00042455
0.128315
0.0017237
0.00462856
0.13421
-0.00454512
0.133034
-9.80045e-05
0.135183
-0.00286833
0.136086
-0.000585178
0.135779
0.00071723
0.134854
0.0017491
0.135369
0.00169152
0.135758
0.000859098
0.135348
0.00248528
0.13401
0.00285685
0.133132
0.00404907
0.133003
0.0026005
0.13265
0.00349494
0.131766
0.00325321
0.130424
0.00405882
0.129029
0.0034452
0.1279
0.00286106
0.126873
0.00179107
0.126402
0.000363596
0.126546
-0.000978831
0.127128
-0.0023256
0.127997
-0.00191341
0.12927
-0.00232648
0.130143
0.000669242
0.130127
0.00191011
0.128891
0.00600685
0.126367
0.00699281
0.123357
0.00897827
0.120312
0.00780142
0.118245
0.00591776
0.116712
0.00320767
0.115685
-0.000547561
0.115549
-0.00178772
0.116868
-0.00656494
0.1179
-0.00432647
0.120184
-0.0068498
0.122564
-0.00415705
0.125024
-0.00288477
0.127858
-0.00110987
0.00389697
0.104795
-0.010183
0.0986277
0.00606956
0.100602
-0.00484236
0.102542
-0.00252555
0.0990798
0.00417952
0.0964389
0.00438997
0.0992446
-0.00111412
0.101036
-0.000932381
0.0993747
0.00414663
0.0995484
0.00268312
0.102111
0.00148684
0.10387
0.00084076
0.106128
0.00123731
0.106875
0.00250585
0.107823
0.00311122
0.107149
0.0041194
0.105212
0.00479829
0.103571
0.00343143
0.101778
0.00215706
0.099837
0.000961837
0.0987873
-0.00127588
0.100106
-0.00323253
0.102085
-0.0043046
0.106108
-0.00335464
0.109928
-0.00190962
0.115053
0.000881929
0.118516
0.00352959
0.121703
0.00579191
0.121947
0.00755732
0.120417
0.00744764
0.115593
0.00803131
0.107716
0.00732967
0.102
0.00392867
0.0948699
0.000564735
0.092201
-0.00165747
0.0907935
-0.00544233
0.093241
-0.00660455
0.0972262
-0.00687003
0.102231
-0.00611512
-0.000610974
0.109804
0.000267827
0.0884247
-0.00034961
0.0872957
0.000454841
-0.000763406
0.110541
-0.0102732
0.0883471
0.0218443
0.0888783
-7.63676e-05
0.0881149
-0.00671124
0.0166262
0.00270063
-0.0158208
0.0186882
-0.0218951
0.0354324
-0.0122833
0.00784417
0.00878202
0.0239044
-0.031881
0.0034522
-0.00144294
0.0257103
0.0131743
-0.00290408
-0.0195622
-0.00176326
0.00492874
-0.00809425
0.00148864
0.0068103
-0.0174301
-0.00209864
0.0130885
-0.00914734
0.0114387
-0.000321158
-0.00994031
0.00654004
-0.00779358
0.00934635
0.00134033
0.0115702
0.000459308
0.012428
0.000629014
0.0133124
-4.36265e-05
0.0158878
-0.0013381
0.0186848
-0.000291127
0.0198903
0.00190572
0.0204356
0.00357412
0.021955
0.00327887
0.0224697
0.0029167
0.0233743
0.00125248
0.0257067
-0.00137058
0.0292505
-0.00481971
0.032435
-0.00641706
0.0364694
-0.00833896
0.0409528
-0.00783803
0.0442145
-0.00517132
0.046563
-0.00146653
0.0476281
0.00246451
0.0473022
0.00611774
0.0460288
0.00883073
0.0429375
0.010539
0.0412556
0.00971318
0.040808
0.00777722
0.0403546
0.00438209
0.0413311
-0.000411714
0.042959
-0.00328545
0.0458928
-0.00837609
0.048736
-0.00944773
0.0528933
-0.0110273
0.0566682
-0.00989007
-0.00140807
0.0063713
-0.000223202
0.00645486
0.00484518
0.00283229
0.00511121
-0.00997331
-0.0046245
-0.00578627
0.00890142
0.00466762
0.00098478
0.00283463
-0.00810732
-0.0031738
-0.00178515
6.46128e-05
-0.00189809
0.00368394
-0.00316002
0.00721631
-0.00290335
0.0104328
-0.00326017
0.0120386
-0.0029438
0.013163
-0.0014156
0.0145608
0.000507925
0.0174446
0.000690337
0.0202365
0.000486939
0.0219861
0.00116717
0.0236919
-0.000453321
0.0257169
-0.00339558
0.0260639
-0.00516672
0.0261367
-0.00648986
0.0260734
-0.00827571
0.0260967
-0.00786131
0.0268903
-0.00596489
0.0279407
-0.00251698
0.0295776
0.000827627
0.0319905
0.00370482
0.0342887
0.00653251
0.0375831
0.00724458
0.0408307
0.00646561
0.0449692
0.0036387
0.0468695
0.00248184
0.0478683
-0.00141048
0.048455
-0.00387216
0.0465336
-0.00645473
0.0447167
-0.0076308
0.0430564
-0.00936707
0.04165
-0.00848367
-0.00150062
0.102538
-0.0128108
0.0937027
0.0306791
0.0979062
-0.00427986
0.0397531
0.146268
0.0953498
-0.00816054
0.108808
0.0172209
0.103466
0.00106248
0.0184487
0.12477
0.0951842
-0.00334478
0.10571
0.00669475
0.103002
0.00377069
0.00907511
0.112376
0.0966552
0.10335
0.107121
0.116196
0.154112
-0.00784422
0.0458267
0.108286
0.125827
-0.00890084
0.0404715
0.131182
0.108824
-0.00534915
0.0160711
0.133224
0.110847
0.126918
0.115501
0.00156699
0.0858093
-0.00218973
0.0804686
0.00389779
0.00795443
0.0856885
0.132913
-0.000164033
0.131275
-0.000552297
0.13446
0.000712905
0.00500933
0.137405
0.133972
-0.000911226
0.133102
0.000317177
0.132832
0.000983566
0.00237369
0.135467
0.126006
0.126324
0.127307
0.129681
0.0834484
0.00201687
0.086132
0.00216158
0.089425
0.00181819
0.0853992
-0.000598706
0.0932363
0.00106432
0.0947588
-0.000537677
0.090841
-0.00418951
0.0934495
-0.00439363
0.0952704
-0.00371905
0.0959949
-0.00388453
0.0960945
-0.00300296
0.0954696
-0.00263523
0.0941164
-0.0015906
0.0942883
-0.00158746
0.0951502
-0.000354005
0.0962333
-0.000392823
0.097381
-0.000660709
0.100151
-0.00160284
0.102641
-0.00294315
0.103147
-0.00390216
0.102947
-0.0049667
0.100088
-0.00363004
0.0950902
-0.00327831
0.0883531
-0.0011243
0.0831041
-0.000715864
0.0782149
0.00237226
0.0766937
0.00234883
0.0770418
0.0033567
0.0806955
0.00287881
0.085935
0.00200503
0.0910884
0.0013122
0.0977308
-0.00300368
0.103405
-0.00319223
0.108361
-0.00636698
0.109438
-0.00494833
0.108515
-0.00553208
0.103746
-0.00286169
0.0957627
-0.00138391
0.0874975
-0.000218548
0.00254698
0.134575
0.00484749
0.134315
0.00242142
0.135065
0.00106867
0.135238
-0.000772319
0.138009
-0.0017069
0.139263
-0.00179162
0.136374
-0.00130049
0.13487
-0.00288944
0.13377
-0.00261856
0.133286
-0.00340056
0.132576
-0.00229333
0.132087
-0.00214613
0.131334
-0.000837531
0.130595
-0.000848392
0.131116
-0.000875691
0.131357
-0.000632888
0.131765
-0.00106898
0.131685
-0.001523
0.131238
-0.00249601
0.130123
-0.00278702
0.128453
-0.00329669
0.12765
-0.00282745
0.126894
-0.00252261
0.125892
-0.000122126
0.124843
0.000333725
0.124472
0.00274314
0.124825
0.00199545
0.125372
0.00280931
0.126885
0.00136626
0.129143
-0.000252982
0.131594
-0.00113913
0.133084
-0.00449366
0.133741
-0.00384852
0.133801
-0.006427
0.13284
-0.00398736
0.132261
-0.00495359
0.131578
-0.00217886
0.130534
-0.000339789
0.128852
0.0014637
0.00382218
0.13808
0.0022345
0.138812
0.00169003
0.139313
0.00056765
0.13928
-0.000739743
0.138675
-0.00110154
0.13831
-0.00142679
0.138083
-0.00107333
0.136645
-0.00145173
0.135104
-0.0010773
0.133308
-0.00160529
0.13245
-0.00143454
0.131621
-0.00131707
0.1315
-0.000717044
0.131112
-0.000460205
0.130944
-0.000707964
0.130868
-0.000556473
0.130592
-0.000792765
0.130113
-0.00104446
0.129125
-0.00150776
0.128174
-0.0018358
0.126586
-0.00170884
0.125338
-0.00157953
0.123891
-0.00107575
0.124028
-0.000259196
0.12416
0.000201657
0.125672
0.00123091
0.126868
0.000799568
0.128443
0.00123454
0.129731
7.77727e-05
0.130005
-0.000526473
0.130216
-0.00135035
0.128375
-0.00265285
0.127084
-0.00255726
0.124347
-0.0036896
0.122591
-0.00223189
0.120166
-0.0025283
0.118719
-0.000731862
0.118405
-2.55184e-05
0.118689
0.00117942
0.00195789
0.131915
0.133605
0.134173
0.133433
0.132332
0.130905
0.129832
0.12838
0.127303
0.125697
0.124263
0.122946
0.122229
0.121768
0.121061
0.120504
0.119711
0.118667
0.117159
0.115323
0.113614
0.112035
0.110959
0.1107
0.110902
0.112132
0.112932
0.114167
0.114244
0.113718
0.112368
0.109715
0.107157
0.103468
0.101236
0.0987077
0.0979758
0.0979503
0.0991297
)
;

boundaryField
{
    inlet
    {
        type            calculated;
        value           nonuniform List<scalar> 10(-0.1 -0.1 -0.1 -0.1 -0.1 -0.1 -0.1 -0.1 -0.1 -0.1);
    }
    outlet
    {
        type            calculated;
        value           nonuniform List<scalar> 10(0.105952 0.126844 0.128589 0.106739 0.0574653 0.0417426 0.0834499 0.127577 0.120553 0.101088);
    }
    obstacle
    {
        type            calculated;
        value           uniform 0;
    }
    upperWall
    {
        type            calculated;
        value           uniform 0;
    }
    lowerWall
    {
        type            calculated;
        value           uniform 0;
    }
    frontAndBack
    {
        type            empty;
        value           nonuniform List<scalar> 0();
    }
}


// ************************************************************************* //
