/*--------------------------------*- C++ -*----------------------------------*\
  =========                 |
  \\      /  F ield         | OpenFOAM: The Open Source CFD Toolbox
   \\    /   O peration     | Website:  https://openfoam.org
    \\  /    A nd           | Version:  10
     \\/     M anipulation  |
\*---------------------------------------------------------------------------*/
FoamFile
{
    format      ascii;
    class       surfaceScalarField;
    location    "9.275";
    object      phi;
}
// * * * * * * * * * * * * * * * * * * * * * * * * * * * * * * * * * * * * * //

dimensions      [0 3 -1 0 0 0 0];

internalField   nonuniform List<scalar> 
760
(
-1.37847e-05
1.3784e-05
-4.45599e-05
3.07752e-05
-8.16946e-05
3.71347e-05
-0.000121086
3.93916e-05
-0.000161537
4.04505e-05
-0.000202789
4.12519e-05
-0.00024457
4.17818e-05
-0.000286204
4.16331e-05
-0.00032639
4.0186e-05
-0.000363015
3.66251e-05
-0.000392989
2.99746e-05
-0.00041219
1.92002e-05
-0.00041564
3.45032e-06
-0.000397979
-1.76613e-05
-0.000355149
-4.283e-05
-0.000286529
-6.86193e-05
-0.000197971
-8.85583e-05
-0.000104047
-9.39241e-05
-2.76324e-05
-7.64145e-05
-2.76324e-05
-3.35291e-05
4.73131e-05
-9.45709e-05
9.18171e-05
-0.000166143
0.000108707
-0.000241435
0.000114684
-0.000317918
0.000116934
-0.000394469
0.000117803
-0.000470004
0.000117317
-0.000542877
0.000114506
-0.000610544
0.000107853
-0.00066931
9.53911e-05
-0.000714153
7.48173e-05
-0.000738596
4.36435e-05
-0.000735848
7.02492e-07
-0.000697929
-5.55807e-05
-0.000619494
-0.000121265
-0.000500229
-0.000187884
-0.000349338
-0.000239449
-0.000189768
-0.000253493
-5.75445e-05
-0.000208638
-8.51769e-05
-4.28004e-05
9.01135e-05
-0.000118351
0.000167367
-0.000205999
0.000196355
-0.000297553
0.000206238
-0.000389982
0.000209362
-0.0004819
0.000209721
-0.000572019
0.000207436
-0.000658498
0.000200985
-0.00073858
0.000187935
-0.000808277
0.000165089
-0.00086209
0.00012863
-0.000893036
7.45896e-05
-0.000892504
1.69887e-07
-0.000850413
-9.76711e-05
-0.000758722
-0.000212956
-0.0006145
-0.000332106
-0.00042712
-0.00042683
-0.000226702
-0.000453912
-6.45634e-05
-0.000370777
-0.00014974
-4.64034e-05
0.000136517
-0.000128273
0.000249237
-0.000222967
0.000291049
-0.000321708
0.000304979
-0.000421463
0.000309117
-0.000521039
0.000309297
-0.000619449
0.000305845
-0.000715241
0.000296777
-0.000806103
0.000278797
-0.000888452
0.000247437
-0.000956921
0.000197099
-0.00100381
0.000121477
-0.00101877
1.51286e-05
-0.000988485
-0.000127953
-0.000898195
-0.000303246
-0.000737413
-0.000492888
-0.000510789
-0.000653453
-0.000258101
-0.0007066
-6.19487e-05
-0.000566928
-0.000211689
-4.71686e-05
0.000183686
-0.000131298
0.000333367
-0.000228865
0.000388615
-0.00033091
0.000407025
-0.000434658
0.000412864
-0.000539406
0.000414046
-0.000644842
0.000411281
-0.000750371
0.000402306
-0.000854675
0.000383102
-0.000955169
0.000347931
-0.0010472
0.000289132
-0.00112292
0.000197197
-0.00116985
6.20524e-05
-0.0011703
-0.0001275
-0.00109915
-0.0003744
-0.000930065
-0.000661969
-0.0006518
-0.000931718
-0.000311828
-0.00104657
-5.6731e-05
-0.000822025
-0.00026842
-4.65713e-05
0.000230257
-0.000130986
0.000417782
-0.00022948
0.000487109
-0.000333084
0.000510628
-0.000439393
0.000519173
-0.000548396
0.000523049
-0.000660751
0.000523637
-0.000777145
0.0005187
-0.000897865
0.000503822
-0.00102218
0.000472243
-0.00114729
0.000414245
-0.00126671
0.000316618
-0.00136763
0.000162969
-0.00142953
-6.55993e-05
-0.0014125
-0.000391426
-0.00126001
-0.000814456
-0.000918976
-0.00127276
-0.000434473
-0.00153108
-6.38266e-05
-0.00119267
-0.000332247
-4.52125e-05
0.000275469
-0.000128803
0.000501372
-0.000227063
0.000585369
-0.000331041
0.000614606
-0.000438735
0.000626867
-0.000550914
0.000635228
-0.000669439
0.000642162
-0.000796696
0.000645957
-0.000935297
0.000642422
-0.00108761
0.000624559
-0.00125482
0.00058145
-0.00143523
0.000497033
-0.00162096
0.000348702
-0.00179198
0.000105419
-0.00189331
-0.000290099
-0.00181092
-0.00089685
-0.00140942
-0.00167426
-0.000723511
-0.00221698
-0.000136775
-0.00177941
-0.000469021
-4.32824e-05
0.000318752
-0.000125216
0.000583306
-0.000222213
0.000682365
-0.000325251
0.000717645
-0.000432669
0.000734285
-0.000546014
0.000748573
-0.000668424
0.000764572
-0.000804282
0.000781815
-0.000959263
0.000797403
-0.00114033
0.000805625
-0.00135547
0.000796595
-0.00161322
0.000754778
-0.0019196
0.000655083
-0.00225935
0.000445168
-0.00256154
1.20889e-05
-0.00260798
-0.000850411
-0.00217398
-0.00210825
-0.00130938
-0.00308158
-0.000398321
-0.00269047
-0.000867343
-4.0891e-05
0.000359643
-0.000120456
0.000662872
-0.00021509
0.000776999
-0.000315521
0.000818076
-0.000420264
0.000839028
-0.000531498
0.000859807
-0.00065352
0.000886594
-0.000792661
0.000920956
-0.00095789
0.000962632
-0.00116192
0.00100966
-0.00142284
0.00105752
-0.00176508
0.00109701
-0.00221385
0.00110385
-0.00275768
0.000989001
-0.00325842
0.000512826
-0.00344649
-0.000662334
-0.00307172
-0.00248303
-0.00219744
-0.00395586
-0.000951093
-0.00393682
-0.00181844
-3.82739e-05
0.000397917
-0.000114988
0.000739586
-0.000206159
0.000868169
-0.000302014
0.000913931
-0.000400982
0.000937997
-0.000505579
0.000964404
-0.00062084
0.00100185
-0.000754476
0.00105459
-0.000918083
0.00112624
-0.00112941
0.00122099
-0.0014158
0.0013439
-0.00181501
0.00149622
-0.00235879
0.00164763
-0.00301836
0.00164857
-0.00361041
0.00110488
-0.00385801
-0.000414729
-0.00365921
-0.00268183
-0.00299049
-0.00462457
-0.00162421
-0.0053031
-0.00344264
-3.59186e-05
0.000433835
-0.000109805
0.000813473
-0.000196627
0.000954991
-0.000285846
0.00100315
-0.000375513
0.00102766
-0.000468032
0.00105692
-0.00056839
0.00110221
-0.000684333
0.00117053
-0.000827798
0.0012697
-0.00101743
0.00141062
-0.00128164
0.00160811
-0.00165627
0.00187085
-0.00215789
0.00214926
-0.00272635
0.00221702
-0.00320641
0.00158494
-0.00342762
-0.000193518
-0.00340248
-0.00270697
-0.00301215
-0.0050149
-0.00189842
-0.00641683
-0.00534107
-3.48147e-05
0.00046865
-0.000106868
0.000885526
-0.000188926
0.00103705
-0.000269549
0.00108377
-0.000346366
0.00110448
-0.000421245
0.0011318
-0.000498137
0.0011791
-0.000582907
0.00125531
-0.000684167
0.00137096
-0.000814381
0.00154083
-0.000990103
0.00178384
-0.00122645
0.0021072
-0.00152057
0.00244338
-0.00182093
0.00251738
-0.00207072
0.00183473
-0.00222769
-3.65495e-05
-0.00234228
-0.00259238
-0.00230196
-0.00505522
-0.00164421
-0.00707458
-0.00698527
-3.61144e-05
0.000504764
-0.00010856
0.000957971
-0.000186471
0.00111496
-0.00025749
0.00115479
-0.000318721
0.00116571
-0.00037134
0.00118442
-0.000417801
0.00122557
-0.000460771
0.00129828
-0.000503229
0.00141342
-0.000547739
0.00158534
-0.000594988
0.00183108
-0.000638404
0.00215061
-0.00067085
0.00247582
-0.000681139
0.00252767
-0.000712194
0.00186579
-0.000827086
7.83424e-05
-0.00108797
-0.0023315
-0.0013914
-0.00475179
-0.00118544
-0.00728055
-0.00817072
-4.39407e-05
0.000548705
-0.000121597
0.00103563
-0.000195608
0.00118897
-0.000254636
0.00121382
-0.000297606
0.00120868
-0.000325551
0.00121237
-0.00033883
0.00123884
-0.000336936
0.00129638
-0.000317511
0.001394
-0.000274274
0.00154211
-0.000194954
0.00175176
-6.11793e-05
0.00201684
0.000134587
0.00228006
0.000349208
0.00231305
0.000480435
0.00173456
0.000368659
0.000190118
-2.74354e-05
-0.0019354
-0.000651592
-0.00412763
-0.0008214
-0.00711074
-0.00899212
-5.4621e-05
0.000603326
-0.000141834
0.00112284
-0.000217455
0.00126459
-0.000270444
0.00126681
-0.000297443
0.00123568
-0.000300431
0.00121535
-0.000280058
0.00121847
-0.000234402
0.00125073
-0.00015819
0.00131778
-4.04573e-05
0.00142437
0.00013373
0.00157758
0.000384079
0.00176649
0.000720994
0.00194314
0.00108827
0.00194577
0.00132339
0.00149944
0.00121484
0.000298668
0.000699794
-0.00142035
-0.000114765
-0.00331307
-0.000526233
-0.00669927
-0.00951835
-0.000122441
0.000725767
-0.000223801
0.0012242
-0.000282707
0.0013235
-0.00030728
0.00129138
-0.000306196
0.0012346
-0.000282407
0.00119156
-0.000233677
0.00116974
-0.000154695
0.00117174
-3.78667e-05
0.00120096
0.000128084
0.00125842
0.000357386
0.00134827
0.000666705
0.00145717
0.00105558
0.00155426
0.00147001
0.00153134
0.00174979
0.00121966
0.00166455
0.000383912
0.00112224
-0.000878048
0.000229196
-0.00242003
-0.000298302
-0.00617177
-0.00981665
-7.88659e-05
0.000804633
-0.000246661
0.001392
-0.000344506
0.00142134
-0.000379475
0.00132635
-0.000369638
0.00122476
-0.000325548
0.00114747
-0.000249525
0.00109372
-0.00013834
0.00106056
1.41559e-05
0.00104846
0.000216876
0.0010557
0.000480527
0.00108462
0.000814398
0.0011233
0.00120818
0.00116048
0.00161508
0.00112445
0.00189892
0.000935819
0.00183993
0.000442905
0.0013654
-0.000403519
0.000584882
-0.00163951
7.50672e-05
-0.00566196
-0.00974158
-0.000375465
0.0011801
-0.000422809
0.00143934
-0.000456142
0.00145468
-0.000476152
0.00134636
-0.000447863
0.00119647
-0.000377718
0.00107733
-0.000268799
0.000984798
-0.000118841
0.000910602
7.15811e-05
0.000858037
0.000308834
0.000818451
0.000593724
0.000799733
0.000930618
0.000786406
0.0013045
0.000786593
0.00166886
0.000760082
0.00195099
0.000653693
0.00199368
0.000400218
0.00183609
-0.000245931
0.00147684
-0.00128026
0.000835775
-0.0050209
-0.00890581
-0.00136299
0.00254309
-0.00132189
0.00139823
-0.00105518
0.00118797
-0.000675438
0.00096662
-0.000276021
0.000797054
0.000127275
0.000674034
0.000523898
0.000588175
0.000913993
0.000520507
0.00129936
0.000472672
0.00168586
0.000431953
0.0020794
0.000406186
0.00248315
0.000382661
0.00290598
0.000363763
0.0033318
0.000334257
0.00373112
0.000254381
0.00401146
0.00011987
0.00408889
-0.000323358
0.00394643
-0.0011378
0.00250546
-0.00357993
-0.00640034
0.00254309
0.00394132
0.00512929
0.00609591
0.00689297
0.007567
0.00815518
0.00867568
0.00914836
0.00958031
0.0099865
0.0103692
0.0107329
0.0110672
0.0113216
0.0114414
0.0111181
0.00998027
0.00640034
)
;

boundaryField
{
    movingWall
    {
        type            calculated;
        value           uniform 0;
    }
    fixedWalls
    {
        type            calculated;
        value           uniform 0;
    }
    frontAndBack
    {
        type            empty;
        value           nonuniform List<scalar> 0();
    }
}


// ************************************************************************* //
