/*--------------------------------*- C++ -*----------------------------------*\
  =========                 |
  \\      /  F ield         | OpenFOAM: The Open Source CFD Toolbox
   \\    /   O peration     | Website:  https://openfoam.org
    \\  /    A nd           | Version:  10
     \\/     M anipulation  |
\*---------------------------------------------------------------------------*/
FoamFile
{
    format      ascii;
    class       surfaceScalarField;
    location    "2.375";
    object      phi;
}
// * * * * * * * * * * * * * * * * * * * * * * * * * * * * * * * * * * * * * //

dimensions      [0 3 -1 0 0 0 0];

internalField   nonuniform List<scalar> 
760
(
-1.33466e-05
1.33466e-05
-3.42835e-05
2.09369e-05
-5.56353e-05
2.13518e-05
-7.58427e-05
2.02074e-05
-9.43289e-05
1.84862e-05
-0.000110649
1.63196e-05
-0.000124393
1.37441e-05
-0.000135185
1.07921e-05
-0.000142686
7.50178e-06
-0.000146606
3.91953e-06
-0.000146706
9.96489e-08
-0.000142812
-3.89357e-06
-0.000134852
-7.96052e-06
-0.000122864
-1.19881e-05
-0.000107023
-1.58409e-05
-8.76622e-05
-1.93605e-05
-6.53031e-05
-2.23592e-05
-4.0779e-05
-2.4524e-05
-1.61713e-05
-2.46077e-05
-1.61713e-05
-2.15911e-05
3.49377e-05
-5.28624e-05
5.22081e-05
-8.44883e-05
5.29778e-05
-0.000114333
5.00522e-05
-0.000141524
4.5677e-05
-0.00016539
4.01862e-05
-0.000185337
3.36908e-05
-0.000200834
2.62888e-05
-0.000211419
1.80869e-05
-0.000216699
9.19989e-06
-0.000216419
-1.80993e-07
-0.000210314
-9.99853e-06
-0.000198343
-1.9931e-05
-0.000180597
-2.97345e-05
-0.000157349
-3.9089e-05
-0.000129092
-4.76171e-05
-9.65806e-05
-5.48706e-05
-6.10043e-05
-6.01003e-05
-2.51566e-05
-6.04554e-05
-4.13279e-05
-2.36988e-05
5.86365e-05
-5.78397e-05
8.6349e-05
-9.22904e-05
8.74285e-05
-0.000124766
8.25281e-05
-0.000154341
7.52514e-05
-0.000180301
6.61462e-05
-0.000202015
5.54047e-05
-0.000218922
4.31961e-05
-0.000230535
2.96999e-05
-0.000236453
1.51176e-05
-0.000236336
-2.97618e-07
-0.000229918
-1.64163e-05
-0.000217124
-3.27251e-05
-0.000198009
-4.885e-05
-0.00017282
-6.42772e-05
-0.00014205
-7.83878e-05
-0.000106484
-9.04363e-05
-6.74068e-05
-9.91775e-05
-2.7879e-05
-9.99832e-05
-6.9207e-05
-2.51862e-05
8.38228e-05
-6.15448e-05
0.000122708
-9.82136e-05
0.000124097
-0.000132784
0.000117099
-0.000164295
0.000106762
-0.000192012
9.38628e-05
-0.000215286
7.86788e-05
-0.00023354
6.14504e-05
-0.000246265
4.24245e-05
-0.000253015
2.18678e-05
-0.000253466
1.53244e-07
-0.000247208
-2.26735e-05
-0.000234115
-4.58182e-05
-0.000214159
-6.88065e-05
-0.000187507
-9.09295e-05
-0.00015459
-0.000111304
-0.000116195
-0.000128831
-7.37032e-05
-0.00014167
-3.0505e-05
-0.000143181
-9.9712e-05
-2.71146e-05
0.000110937
-6.63306e-05
0.000161924
-0.000105871
0.000163637
-0.000143157
0.000154385
-0.000177182
0.000140787
-0.000207189
0.00012387
-0.000232516
0.000104005
-0.000252573
8.15069e-05
-0.00026683
5.66814e-05
-0.00027481
2.98486e-05
-0.000276087
1.42957e-06
-0.000270234
-2.85258e-05
-0.000256953
-5.90997e-05
-0.000236075
-8.96844e-05
-0.000207629
-0.000119375
-0.000171933
-0.000147
-0.000129736
-0.000171028
-8.25435e-05
-0.000188863
-3.4229e-05
-0.000191496
-0.000133941
-2.96563e-05
0.000140594
-7.26087e-05
0.000204876
-0.00011589
0.000206918
-0.000156697
0.000195192
-0.000193966
0.000178057
-0.000226919
0.000156823
-0.000254887
0.000131973
-0.000277277
0.000103897
-0.000293548
7.2952e-05
-0.000303187
3.94876e-05
-0.000305691
3.93358e-06
-0.000300532
-3.3684e-05
-0.000287226
-7.2406e-05
-0.000265388
-0.000111523
-0.000234812
-0.000149951
-0.000195606
-0.000186206
-0.000148407
-0.000218227
-9.4843e-05
-0.000242426
-3.94627e-05
-0.000246876
-0.000173404
-3.28863e-05
0.00017348
-8.05622e-05
0.000252552
-0.00012854
0.000254896
-0.000173734
0.000240386
-0.000215014
0.000219337
-0.00025159
0.000193398
-0.000282803
0.000163186
-0.000308079
0.000129174
-0.000326886
9.17591e-05
-0.00033869
5.12915e-05
-0.000342919
8.16219e-06
-0.000338914
-3.76889e-05
-0.000325948
-8.5372e-05
-0.000303324
-0.000134146
-0.000270461
-0.000182815
-0.000227094
-0.000229572
-0.000173592
-0.00027173
-0.000111643
-0.000304375
-4.67045e-05
-0.000311815
-0.000220108
-3.68958e-05
0.000210376
-9.04077e-05
0.000306064
-0.000144133
0.000308621
-0.000194632
0.000290885
-0.00024071
0.000265415
-0.000281581
0.00023427
-0.000316633
0.000198238
-0.000345349
0.000157889
-0.000367244
0.000113654
-0.000381797
6.58444e-05
-0.000388384
1.47497e-05
-0.000386214
-3.98591e-05
-0.000374254
-9.73321e-05
-0.000351376
-0.000157024
-0.000316418
-0.000217774
-0.000268467
-0.000277523
-0.00020733
-0.000332866
-0.000134552
-0.000377154
-5.67755e-05
-0.000389591
-0.000276884
-4.18201e-05
0.000252196
-0.000102453
0.000366696
-0.000163094
0.000369262
-0.000219874
0.000347665
-0.000271539
0.00031708
-0.000317347
0.000280079
-0.000356784
0.000237674
-0.000389453
0.000190559
-0.000414986
0.000139187
-0.000432935
8.37927e-05
-0.000442669
2.44836e-05
-0.000443295
-3.92327e-05
-0.000433427
-0.0001072
-0.000411377
-0.000179075
-0.000375129
-0.000254021
-0.000322676
-0.000329976
-0.000252722
-0.000402821
-0.000166162
-0.000463714
-7.11161e-05
-0.000484637
-0.000348
-4.78673e-05
0.000300063
-0.000117148
0.000435977
-0.000186025
0.000438139
-0.000250113
0.000411753
-0.000308128
0.000375095
-0.000359432
0.000331383
-0.000403692
0.000281934
-0.000440729
0.000227597
-0.00047039
0.000168848
-0.0004924
0.000105803
-0.000506215
3.82987e-05
-0.000510928
-3.45197e-05
-0.000504796
-0.000113332
-0.000485468
-0.000198403
-0.00044976
-0.000289729
-0.000393924
-0.000385812
-0.000314556
-0.000482188
-0.000210804
-0.000567467
-9.24102e-05
-0.00060303
-0.00044041
-5.5369e-05
0.000355432
-0.000135168
0.000515776
-0.000213792
0.000516763
-0.000286253
0.000484214
-0.000351299
0.000440141
-0.0004085
0.000388584
-0.000457823
0.000331257
-0.000499443
0.000269217
-0.000533563
0.000202968
-0.000560233
0.000132473
-0.000579151
5.72166e-05
-0.000589574
-2.40968e-05
-0.000589509
-0.000113397
-0.000575944
-0.000211967
-0.000544242
-0.000321431
-0.000488105
-0.00044195
-0.000400352
-0.00056994
-0.000276009
-0.00069181
-0.000126018
-0.000753021
-0.000566428
-6.48763e-05
0.000420308
-0.000157554
0.000608454
-0.000247664
0.000606873
-0.000329556
0.000566106
-0.000402148
0.000512734
-0.000465374
0.00045181
-0.000519673
0.000385556
-0.000565748
0.000315292
-0.00060435
0.000241569
-0.00063606
0.000164183
-0.00066105
8.22069e-05
-0.000679037
-6.10976e-06
-0.000688115
-0.000104319
-0.000684852
-0.00021523
-0.00066311
-0.000343174
-0.000613248
-0.000491811
-0.00052199
-0.000661198
-0.000375484
-0.000838316
-0.000183474
-0.000945031
-0.000749902
-7.73646e-05
0.000497673
-0.000185944
0.000717033
-0.00028952
0.000710449
-0.000381806
0.000658392
-0.00046216
0.000593088
-0.000531106
0.000520755
-0.000589785
0.000444234
-0.000639652
0.000365159
-0.000682236
0.000284153
-0.000718905
0.000200852
-0.000750635
0.000113937
-0.000777952
2.12072e-05
-0.000799846
-8.2425e-05
-0.000813114
-0.000201962
-0.000810783
-0.000345505
-0.000779684
-0.00052291
-0.000697932
-0.00074295
-0.000535146
-0.0010011
-0.000292685
-0.00118749
-0.00104259
-9.46881e-05
0.000592361
-0.000223143
0.000845488
-0.000342239
0.000829545
-0.000445547
0.000761699
-0.000533356
0.000680898
-0.000607056
0.000594455
-0.000668782
0.000505961
-0.000721002
0.000417379
-0.000766269
0.00032942
-0.000807025
0.000241608
-0.000845435
0.000152347
-0.000883072
5.88436e-05
-0.000921363
-4.41336e-05
-0.000958733
-0.000164592
-0.000989474
-0.000314765
-0.000998705
-0.000513678
-0.00095548
-0.000786175
-0.00080086
-0.00115572
-0.000507185
-0.00148117
-0.00154977
-0.000117918
0.000710279
-0.000271755
0.000999325
-0.000409363
0.000967154
-0.000524191
0.000876526
-0.000618441
0.000775148
-0.000694968
0.000670983
-0.00075739
0.000568382
-0.000809463
0.000469453
-0.000854959
0.000374916
-0.000897588
0.000284237
-0.000940838
0.000195597
-0.000988314
0.000106319
-0.00104581
1.33643e-05
-0.00111368
-9.67218e-05
-0.00119386
-0.000234588
-0.0012752
-0.00043234
-0.00132586
-0.000735508
-0.00123365
-0.00124793
-0.000908954
-0.00180587
-0.00245873
-0.000172661
0.00088294
-0.000349805
0.00117647
-0.000500501
0.00111785
-0.000622527
0.000998552
-0.000720198
0.000872819
-0.000796473
0.000747258
-0.000855978
0.000627887
-0.000903891
0.000517366
-0.000945555
0.000416581
-0.000986262
0.000324944
-0.00103186
0.000241194
-0.0010883
0.000162764
-0.00116121
8.62755e-05
-0.00125876
8.251e-07
-0.00139906
-9.42856e-05
-0.00158044
-0.000250959
-0.00178737
-0.000528582
-0.00183104
-0.00120426
-0.00146747
-0.00216944
-0.00392619
-0.000168117
0.00105106
-0.000417053
0.0014254
-0.000608277
0.00130907
-0.000748751
0.00113903
-0.000847623
0.000971691
-0.000914074
0.000813708
-0.000959199
0.000673013
-0.000991973
0.00055014
-0.00101934
0.000443945
-0.00104663
0.000352232
-0.00107951
0.000274081
-0.00112448
0.000207728
-0.00119411
0.000155912
-0.00130958
0.000116297
-0.00149789
9.40156e-05
-0.00177811
2.92635e-05
-0.00215637
-0.000150324
-0.00228909
-0.00107155
-0.0017512
-0.00270732
-0.0056774
-0.000457145
0.0015082
-0.00064028
0.00160854
-0.000777923
0.00144672
-0.0008789
0.00124
-0.000928736
0.00102153
-0.000944979
0.000829951
-0.000942095
0.000670129
-0.000930101
0.000538146
-0.000916701
0.000430545
-0.00090762
0.000343151
-0.000910838
0.000277299
-0.000930264
0.000227154
-0.000979731
0.000205379
-0.00106309
0.000199656
-0.00120973
0.00024066
-0.00139423
0.000213756
-0.00159247
4.7922e-05
-0.00165934
-0.00100468
-0.00102875
-0.00333791
-0.00670615
-0.00122308
0.00273128
-0.00112864
0.0015141
-0.000896839
0.00121492
-0.000602368
0.000945532
-0.000309055
0.000728214
-4.04788e-05
0.000561376
0.000193293
0.000436357
0.000390458
0.00034098
0.000552148
0.000268855
0.00068381
0.000211489
0.000789194
0.000171915
0.00087681
0.000139538
0.000959986
0.000122202
0.00104237
0.000117271
0.00118259
0.00010044
0.00130919
8.71534e-05
0.00152792
-0.000170804
0.00146512
-0.000941877
0.00106798
-0.00294077
-0.00563817
0.00273128
0.00424538
0.0054603
0.00640583
0.00713404
0.00769542
0.00813178
0.00847276
0.00874161
0.0089531
0.00912501
0.00926455
0.00938676
0.00950403
0.00960447
0.00969162
0.00952082
0.00857894
0.00563817
)
;

boundaryField
{
    movingWall
    {
        type            calculated;
        value           uniform 0;
    }
    fixedWalls
    {
        type            calculated;
        value           uniform 0;
    }
    frontAndBack
    {
        type            empty;
        value           nonuniform List<scalar> 0();
    }
}


// ************************************************************************* //
