/*--------------------------------*- C++ -*----------------------------------*\
  =========                 |
  \\      /  F ield         | OpenFOAM: The Open Source CFD Toolbox
   \\    /   O peration     | Website:  https://openfoam.org
    \\  /    A nd           | Version:  10
     \\/     M anipulation  |
\*---------------------------------------------------------------------------*/
FoamFile
{
    format      ascii;
    class       volVectorField;
    location    "9.3";
    object      U;
}
// * * * * * * * * * * * * * * * * * * * * * * * * * * * * * * * * * * * * * //

dimensions      [0 1 -1 0 0 0 0];

internalField   nonuniform List<vector> 
8000
(
(-8.24426e-05 0.000115728 -4.71561e-05)
(-0.000575726 0.00024007 -1.03491e-05)
(-0.00139207 0.000279314 7.86215e-06)
(-0.00223684 0.000297493 1.74846e-05)
(-0.00313264 0.000314185 1.80203e-05)
(-0.00405942 0.0003349 1.25157e-05)
(-0.00501077 0.000358777 1.99021e-06)
(-0.00597434 0.000382497 -1.45161e-05)
(-0.0069249 0.000401387 -3.90189e-05)
(-0.00782089 0.000409455 -7.41456e-05)
(-0.00860057 0.000399453 -0.000122775)
(-0.00918005 0.000363539 -0.000187438)
(-0.00945606 0.000295495 -0.000269123)
(-0.00931677 0.000193926 -0.000365534)
(-0.00866427 6.30751e-05 -0.000469075)
(-0.00744616 -8.43892e-05 -0.000562232)
(-0.00571198 -0.00021096 -0.000621309)
(-0.00368406 -0.000269815 -0.000619428)
(-0.00151029 -0.00022125 -0.000537656)
(-0.000191599 6.32666e-06 -0.000279205)
(-0.000203756 0.000755248 -0.000140952)
(-0.00108858 0.00130886 -0.000129905)
(-0.00244869 0.00149857 -0.000121059)
(-0.00385773 0.00158474 -0.000113579)
(-0.00534153 0.00164779 -0.000113083)
(-0.0068631 0.00171096 -0.000117815)
(-0.0084048 0.00177295 -0.000127398)
(-0.00994167 0.00182203 -0.00014334)
(-0.011431 0.00184049 -0.000168276)
(-0.0128072 0.00180576 -0.000205751)
(-0.0139763 0.00169156 -0.000259915)
(-0.0148131 0.0014707 -0.000334777)
(-0.0151654 0.00112092 -0.000432429)
(-0.0148727 0.000635145 -0.000550792)
(-0.0137997 3.92017e-05 -0.000684479)
(-0.0118657 -0.000592906 -0.000802945)
(-0.00913749 -0.00113097 -0.000874878)
(-0.00594334 -0.0013956 -0.000860979)
(-0.00250997 -0.0012286 -0.000728176)
(-0.00036546 -0.000374531 -0.000329901)
(-0.000241884 0.0018222 -0.000193717)
(-0.00126928 0.00300203 -0.000197319)
(-0.00283173 0.00341295 -0.000193728)
(-0.00444133 0.00359317 -0.000186635)
(-0.00613115 0.00371083 -0.000184904)
(-0.00786021 0.00381483 -0.000187645)
(-0.00961048 0.00390544 -0.000194968)
(-0.011357 0.00396189 -0.000208897)
(-0.0130565 0.0039511 -0.000232785)
(-0.0146407 0.00383003 -0.00027137)
(-0.0160098 0.00354832 -0.000330517)
(-0.0170275 0.00305372 -0.000416401)
(-0.0175222 0.00230337 -0.000533681)
(-0.0172955 0.00128385 -0.000682719)
(-0.0161545 4.3222e-05 -0.000852858)
(-0.0139723 -0.00127409 -0.00101317)
(-0.0107924 -0.00241811 -0.00111367)
(-0.00699531 -0.00301358 -0.00109656)
(-0.00286489 -0.00271841 -0.000914439)
(-0.000357587 -0.0010223 -0.000391835)
(-0.000245199 0.00295174 -0.000230606)
(-0.00130907 0.00480005 -0.000246483)
(-0.00293156 0.00543846 -0.00024721)
(-0.00459902 0.00571054 -0.000240756)
(-0.00635352 0.00588227 -0.000238699)
(-0.00815658 0.00603123 -0.000240932)
(-0.00999654 0.00616126 -0.000248099)
(-0.0118564 0.00624497 -0.000262851)
(-0.0137021 0.0062364 -0.000289479)
(-0.015474 0.00607342 -0.000334278)
(-0.0170767 0.00568006 -0.000405686)
(-0.0183689 0.00497367 -0.000513417)
(-0.0191555 0.00388094 -0.00066617)
(-0.0191911 0.00236763 -0.000867499)
(-0.0182072 0.000482257 -0.00110844)
(-0.0159783 -0.0015797 -0.00135239)
(-0.012452 -0.00344564 -0.00151743)
(-0.00804602 -0.00448321 -0.00151039)
(-0.00310755 -0.00409576 -0.0012516)
(-0.000252323 -0.0014528 -0.000521727)
(-0.000231247 0.00413528 -0.000254948)
(-0.00127933 0.0066923 -0.000281089)
(-0.00289549 0.00757193 -0.000285313)
(-0.00455931 0.00794396 -0.000279893)
(-0.00632069 0.00818111 -0.000278902)
(-0.00814689 0.00839419 -0.000283091)
(-0.0100369 0.00859445 -0.000293788)
(-0.0119872 0.00875185 -0.000314556)
(-0.0139805 0.00881154 -0.000351092)
(-0.0159747 0.00869549 -0.000411966)
(-0.0178891 0.00830207 -0.000509366)
(-0.0195851 0.00751116 -0.000658923)
(-0.0208474 0.00620135 -0.000876894)
(-0.0213702 0.00428468 -0.00117324)
(-0.0207666 0.00177105 -0.00153993)
(-0.0186637 -0.00113506 -0.00194498)
(-0.0148193 -0.00389623 -0.00224788)
(-0.00962594 -0.00560527 -0.00228784)
(-0.0034763 -0.00525018 -0.00189934)
(-7.81002e-05 -0.00156061 -0.000774109)
(-0.000207844 0.00532399 -0.000272052)
(-0.00121096 0.00861234 -0.000307293)
(-0.00278388 0.00974493 -0.00031464)
(-0.00440965 0.0102275 -0.000310686)
(-0.00614399 0.010547 -0.000311897)
(-0.00796117 0.0108534 -0.000320042)
(-0.00987328 0.0111714 -0.000337364)
(-0.0118947 0.0114747 -0.000368686)
(-0.0140309 0.0117068 -0.000421682)
(-0.0162678 0.011781 -0.000508172)
(-0.0185533 0.0115752 -0.000645819)
(-0.0207688 0.0109295 -0.000859392)
(-0.0226946 0.00965766 -0.00117877)
(-0.0239739 0.00758403 -0.00162851)
(-0.0240958 0.00461849 -0.00221119)
(-0.0224217 0.000895876 -0.00290291)
(-0.0184101 -0.00297707 -0.0035242)
(-0.012292 -0.00574685 -0.00372648)
(-0.00428518 -0.00578826 -0.00314157)
(0.000121328 -0.0011011 -0.0012459)
(-0.000177582 0.00649151 -0.000286289)
(-0.00111535 0.0105239 -0.000330375)
(-0.00261787 0.0119192 -0.000340622)
(-0.0041764 0.0125219 -0.000338078)
(-0.00585002 0.0129405 -0.000341676)
(-0.00761957 0.0133714 -0.000354457)
(-0.00951066 0.01386 -0.000379874)
(-0.0115579 0.0143939 -0.000424427)
(-0.0137952 0.0149272 -0.000498368)
(-0.0162464 0.0153791 -0.000617914)
(-0.0189065 0.0156228 -0.000808558)
(-0.0217079 0.0154735 -0.00110886)
(-0.0244653 0.0146833 -0.00157213)
(-0.0268106 0.0129611 -0.00225928)
(-0.0281247 0.0100451 -0.00321176)
(-0.0275058 0.00584689 -0.00438325)
(-0.0238979 0.000733793 -0.00560374)
(-0.0170093 -0.00384416 -0.0062661)
(-0.00639673 -0.00514475 -0.00546102)
(7.77371e-05 1.47244e-05 -0.00217239)
(-0.000141352 0.00762133 -0.00030007)
(-0.000997155 0.0124043 -0.000353227)
(-0.00240505 0.0140674 -0.000365886)
(-0.00386476 0.0147929 -0.00036386)
(-0.00543593 0.0153189 -0.00036882)
(-0.0071035 0.0158962 -0.000385331)
(-0.00890444 0.0166005 -0.000418302)
(-0.0108922 0.0174448 -0.000476211)
(-0.0131301 0.0184111 -0.000572427)
(-0.0156867 0.0194495 -0.000728492)
(-0.0186206 0.0204629 -0.000979447)
(-0.0219488 0.0212854 -0.00138148)
(-0.0255892 0.0216556 -0.00201963)
(-0.0292654 0.0211934 -0.00300529)
(-0.0323918 0.0194017 -0.00444437)
(-0.0339161 0.015681 -0.00635148)
(-0.0321454 0.00955746 -0.0084643)
(-0.0254737 0.00187299 -0.0100352)
(-0.0118469 -0.00272579 -0.00925171)
(-0.00109648 0.00152789 -0.00407474)
(-0.00010093 0.00870277 -0.000315089)
(-0.000863126 0.0142377 -0.000377762)
(-0.0021555 0.0161644 -0.000391922)
(-0.00348214 0.0170014 -0.000388558)
(-0.00490014 0.017625 -0.000392515)
(-0.00639416 0.0183494 -0.000410112)
(-0.00800732 0.0192897 -0.000447853)
(-0.00980565 0.0204972 -0.00051621)
(-0.0118745 0.0220015 -0.000631497)
(-0.0143206 0.0238142 -0.000820133)
(-0.0172678 0.0259184 -0.00112591)
(-0.0208423 0.0282434 -0.00162014)
(-0.0251349 0.0306203 -0.00241016)
(-0.0301271 0.0326709 -0.00363663)
(-0.0355678 0.0335864 -0.00544678)
(-0.0406616 0.0317302 -0.00794522)
(-0.0432608 0.0245039 -0.0110479)
(-0.0394117 0.0113733 -0.0140285)
(-0.0239402 -0.000151121 -0.0137906)
(-0.00521396 0.00185515 -0.00778219)
(-6.06125e-05 0.00973415 -0.000333366)
(-0.000728023 0.0160186 -0.000406099)
(-0.00189238 0.01819 -0.000420457)
(-0.00305302 0.0191061 -0.000412973)
(-0.00426213 0.0197894 -0.000412225)
(-0.00549813 0.020627 -0.000426518)
(-0.00680235 0.0217806 -0.00046392)
(-0.00824121 0.0233498 -0.000536457)
(-0.00990464 0.0254287 -0.000662132)
(-0.0119139 0.0281199 -0.000868956)
(-0.0144299 0.0315371 -0.00120116)
(-0.0176645 0.0357863 -0.00172209)
(-0.0219184 0.0409042 -0.00249855)
(-0.0276228 0.0465449 -0.0035645)
(-0.0353314 0.0513176 -0.00493078)
(-0.0453065 0.051689 -0.00683312)
(-0.0550572 0.0416082 -0.010018)
(-0.0576256 0.0185904 -0.0140685)
(-0.0431346 -0.00447181 -0.0146434)
(-0.0131671 -0.00395147 -0.0121442)
(-2.87468e-05 0.010731 -0.000357898)
(-0.00061958 0.0177604 -0.000441407)
(-0.00166001 0.0201352 -0.000454157)
(-0.00262965 0.021067 -0.000438903)
(-0.00357651 0.0217351 -0.000428446)
(-0.00446649 0.0226065 -0.000433581)
(-0.00533102 0.0238909 -0.000463579)
(-0.00621974 0.0257373 -0.000530923)
(-0.00719989 0.0283089 -0.000652662)
(-0.00836558 0.0318094 -0.000851016)
(-0.0098577 0.0365078 -0.0011523)
(-0.0119034 0.0427083 -0.00156298)
(-0.0150031 0.0506298 -0.00198163)
(-0.020176 0.0597298 -0.00207982)
(-0.0291543 0.0674687 -0.00153203)
(-0.044197 0.0674248 -0.000917072)
(-0.0641066 0.0505441 -0.00227618)
(-0.0772606 0.012189 -0.0040818)
(-0.0629667 -0.0254115 -0.00384847)
(-0.0210289 -0.0257285 -0.0106952)
(-2.13546e-05 0.0117434 -0.000394476)
(-0.000587346 0.0195166 -0.00049165)
(-0.00153473 0.0220265 -0.00050197)
(-0.00230189 0.0228739 -0.000475092)
(-0.00294255 0.0234085 -0.000448732)
(-0.0034079 0.0241822 -0.000437559)
(-0.00371552 0.0254469 -0.000451953)
(-0.00388132 0.0273874 -0.000503565)
(-0.00392221 0.030222 -0.000605765)
(-0.00385662 0.034219 -0.00076461)
(-0.00374346 0.0397687 -0.000966305)
(-0.00375962 0.0472738 -0.00110516)
(-0.00460804 0.0569015 -0.000803056)
(-0.00804391 0.0675588 0.000824737)
(-0.0178576 0.0753704 0.00441976)
(-0.0397773 0.0715938 0.00929375)
(-0.074872 0.0445713 0.0137969)
(-0.0976496 -0.0165628 0.0203464)
(-0.078743 -0.0731779 0.0180265)
(-0.027342 -0.0692425 -0.000760748)
(-6.6161e-05 0.0128582 -0.000453201)
(-0.000706118 0.0213536 -0.000562037)
(-0.00162577 0.0238678 -0.000563332)
(-0.00219933 0.0244733 -0.000517096)
(-0.00250748 0.0247169 -0.000468532)
(-0.00249132 0.0252251 -0.000436288)
(-0.00216132 0.0262695 -0.000430475)
(-0.00149032 0.0280399 -0.000459148)
(-0.000437545 0.0307755 -0.000533317)
(0.00108651 0.0347665 -0.000631403)
(0.00313441 0.0404032 -0.000702395)
(0.00555324 0.0480618 -0.000521343)
(0.00738383 0.0577244 0.000616975)
(0.00602681 0.0678208 0.00413358)
(-0.00522976 0.0736577 0.0111896)
(-0.0371001 0.0648095 0.0217632)
(-0.0884213 0.0200759 0.0356962)
(-0.113674 -0.0784556 0.043555)
(-0.0958621 -0.148355 0.0278388)
(-0.0357651 -0.137109 0.0057055)
(-0.000231487 0.0142956 -0.000571825)
(-0.00113827 0.0235748 -0.000710258)
(-0.00212693 0.0259732 -0.000712431)
(-0.00250606 0.0261666 -0.00064208)
(-0.00244614 0.025903 -0.000556435)
(-0.00191169 0.0258973 -0.000484986)
(-0.00092096 0.0264412 -0.00044383)
(0.000602238 0.0277123 -0.000436443)
(0.00277472 0.0299289 -0.000474988)
(0.00576263 0.0333354 -0.000533462)
(0.00972361 0.0382444 -0.000514652)
(0.014589 0.0449072 -0.000133538)
(0.0192538 0.0532332 0.00154669)
(0.020537 0.0616351 0.00633694)
(0.00965389 0.0655574 0.0163904)
(-0.0273043 0.0498644 0.0313257)
(-0.0847465 -0.0187042 0.0465653)
(-0.110394 -0.142946 0.0397627)
(-0.110986 -0.215515 0.0193066)
(-0.0424121 -0.21871 -0.00151086)
(-0.000564208 0.016594 -0.000763069)
(-0.00193756 0.0260756 -0.000881271)
(-0.00313575 0.0277983 -0.000853763)
(-0.00339834 0.0270978 -0.000733637)
(-0.00302522 0.026118 -0.000610376)
(-0.00198398 0.0255205 -0.000508149)
(-0.000335189 0.025508 -0.000443821)
(0.00201352 0.0261635 -0.00041546)
(0.00520947 0.0276228 -0.000444359)
(0.00948905 0.0300163 -0.000501914)
(0.0150972 0.0335746 -0.00048751)
(0.0221248 0.0383393 -0.00010215)
(0.0295971 0.0441917 0.00160552)
(0.0350686 0.0498249 0.0063528)
(0.0303271 0.0521341 0.0168491)
(0.00318994 0.0325195 0.0313903)
(-0.0492313 -0.0450228 0.0408374)
(-0.0836564 -0.166035 0.0269712)
(-0.111159 -0.256798 0.0121315)
(-0.0429709 -0.292008 -0.0164339)
(-0.00194128 0.0187971 -0.00125484)
(-0.00468308 0.0303536 -0.00148921)
(-0.00567857 0.0315726 -0.00141507)
(-0.00542418 0.0302278 -0.00121708)
(-0.00429197 0.0281555 -0.000983917)
(-0.0025345 0.0264024 -0.000777226)
(-0.000212068 0.0252248 -0.00063179)
(0.00282629 0.024691 -0.000550499)
(0.00678362 0.024886 -0.000560121)
(0.0119802 0.0258103 -0.000655466)
(0.0186872 0.0275678 -0.000708035)
(0.027134 0.0299726 -0.000515996)
(0.0365407 0.0328072 0.000732658)
(0.0457729 0.0346399 0.00420204)
(0.0478946 0.0343328 0.0124554)
(0.0372786 0.0163314 0.0240411)
(-0.00611546 -0.0510678 0.0299329)
(-0.0483133 -0.160431 0.0215362)
(-0.100896 -0.275831 0.00755433)
(-0.0400394 -0.347645 -0.0308169)
(-0.00133845 0.0301435 -0.00226077)
(-0.00486802 0.0339258 -0.00217555)
(-0.00796592 0.0324137 -0.00198144)
(-0.00787274 0.028379 -0.00152503)
(-0.00681215 0.0253267 -0.00119464)
(-0.00448476 0.0230901 -0.000917224)
(-0.00136378 0.0215842 -0.000734621)
(0.00259827 0.0205806 -0.000642644)
(0.00747797 0.0200663 -0.00068642)
(0.0135718 0.0199145 -0.000869221)
(0.0210656 0.0202057 -0.00107874)
(0.0303029 0.0205371 -0.00119468)
(0.0402729 0.0207885 -0.000631092)
(0.0513249 0.019156 0.00126654)
(0.055874 0.015386 0.00644779)
(0.0569961 0.000193506 0.0146254)
(0.0211097 -0.0472026 0.0195847)
(-0.0137167 -0.141368 0.0188471)
(-0.0864554 -0.275397 0.00283901)
(-0.0320001 -0.3848 -0.0441801)
(-0.0129076 0.0273928 -0.00301688)
(-0.0214895 0.0481213 -0.00386498)
(-0.015177 0.0437951 -0.00378783)
(-0.0128926 0.038705 -0.00330694)
(-0.00801313 0.0326201 -0.0025603)
(-0.00270165 0.0276122 -0.00188275)
(0.00294216 0.0236861 -0.00140836)
(0.00902144 0.0206216 -0.00114091)
(0.0155347 0.0183624 -0.0011014)
(0.023052 0.0165639 -0.00130165)
(0.0312402 0.0153515 -0.00162406)
(0.0411649 0.0140295 -0.00200831)
(0.0505055 0.0130762 -0.00202516)
(0.0623296 0.0104308 -0.00118393)
(0.065665 0.00678448 0.0015218)
(0.0743651 -0.00438147 0.0071972)
(0.0461687 -0.0337194 0.0109261)
(0.0380839 -0.112667 0.0158931)
(-0.052966 -0.260399 -0.00127183)
(-0.0121579 -0.396744 -0.0553356)
(-0.0467 0.0874199 -0.0125068)
(-0.0299523 0.0392739 -0.00907395)
(-0.0205214 0.0328989 -0.00707999)
(-0.000907829 0.0257905 -0.00518342)
(0.0156644 0.0193475 -0.00393527)
(0.0322811 0.0150077 -0.00297898)
(0.046785 0.0121994 -0.00231574)
(0.0606043 0.0100153 -0.00194177)
(0.0724589 0.00857438 -0.00178292)
(0.08513 0.0071852 -0.00189786)
(0.0952953 0.00653545 -0.00216346)
(0.108988 0.0053843 -0.00262009)
(0.117115 0.00479106 -0.0029653)
(0.134268 0.00243475 -0.002874)
(0.134371 -0.00127122 -0.00197964)
(0.155522 -0.0118223 0.00164821)
(0.127774 -0.0370873 0.00465936)
(0.150257 -0.0983285 0.0102543)
(0.0313868 -0.233748 -0.00429171)
(0.0356352 -0.364237 -0.0656204)
(0.117489 0.112309 -0.011172)
(0.144036 0.0598902 -0.0119017)
(0.215866 0.0394796 -0.0118649)
(0.260742 0.0261721 -0.010767)
(0.29341 0.0173333 -0.00937592)
(0.321153 0.0113653 -0.00818943)
(0.341773 0.00764774 -0.00709859)
(0.361573 0.00509911 -0.00627482)
(0.374388 0.00360211 -0.00552509)
(0.391056 0.00239361 -0.00502937)
(0.3981 0.00182131 -0.00464157)
(0.415427 0.00113813 -0.00438936)
(0.415899 0.000834163 -0.0042702)
(0.43697 -9.80713e-05 -0.00397338)
(0.425021 -0.0015192 -0.00369103)
(0.449117 -0.00515632 -0.00283309)
(0.404304 -0.0137758 -0.00173687)
(0.414472 -0.0322912 -0.00186795)
(0.24921 -0.0724996 -0.0101938)
(0.167544 -0.13792 -0.0753557)
(-0.000139821 0.000173368 -0.000160531)
(-0.000984617 0.000430405 -0.000132686)
(-0.00239086 0.000520007 -0.000108217)
(-0.00383882 0.00055299 -9.50386e-05)
(-0.00534991 0.000574192 -0.000100404)
(-0.00688818 0.000597949 -0.000121199)
(-0.00844062 0.00062393 -0.000157332)
(-0.00998498 0.000646553 -0.00021237)
(-0.0114791 0.000657852 -0.00029201)
(-0.0128567 0.000647683 -0.000403081)
(-0.0140225 0.000603899 -0.000552473)
(-0.0148505 0.000513547 -0.000745305)
(-0.015189 0.000366486 -0.000981773)
(-0.0148762 0.000160201 -0.00125315)
(-0.0137695 -0.000100745 -0.00153468)
(-0.0117948 -0.000381261 -0.001783)
(-0.00902962 -0.000613961 -0.00193898)
(-0.00580427 -0.000704926 -0.00193984)
(-0.00238064 -0.000561811 -0.00173001)
(-0.00031213 -6.5566e-05 -0.00103062)
(-0.000417761 0.00118042 -0.000366128)
(-0.00212958 0.00229275 -0.00040808)
(-0.00472928 0.00269846 -0.000403598)
(-0.00741302 0.0028502 -0.000393066)
(-0.0101903 0.0029254 -0.000398983)
(-0.012985 0.00298142 -0.000422159)
(-0.0157555 0.00302013 -0.000464766)
(-0.0184489 0.00302143 -0.000532761)
(-0.0209838 0.00295457 -0.000634618)
(-0.0232437 0.00278107 -0.000780517)
(-0.0250712 0.00245724 -0.000980967)
(-0.0262668 0.0019396 -0.00124409)
(-0.0265991 0.00119534 -0.00157095)
(-0.0258376 0.000220013 -0.00195158)
(-0.023782 -0.000931443 -0.00235317)
(-0.0203309 -0.0021153 -0.00270497)
(-0.0156212 -0.00307602 -0.00292019)
(-0.0101624 -0.00345806 -0.00289829)
(-0.00438013 -0.00290664 -0.00253341)
(-0.000712566 -0.000972509 -0.00139015)
(-0.000532318 0.0028931 -0.000487086)
(-0.00262852 0.00524144 -0.000572248)
(-0.00575951 0.00610096 -0.000580659)
(-0.00897256 0.00641295 -0.000570171)
(-0.0122803 0.00654196 -0.000572934)
(-0.0155929 0.0066054 -0.000592563)
(-0.0188618 0.00661147 -0.000633098)
(-0.022028 0.00652392 -0.000702619)
(-0.0250022 0.00628452 -0.000812424)
(-0.0276575 0.00581963 -0.000976682)
(-0.0298209 0.00504607 -0.001211)
(-0.0312712 0.00388204 -0.00152952)
(-0.0317447 0.00226764 -0.00193991)
(-0.030951 0.000200065 -0.00243412)
(-0.0286175 -0.0022094 -0.00296927)
(-0.024578 -0.00468648 -0.00345981)
(-0.0189361 -0.0067192 -0.0037708)
(-0.0122906 -0.00756771 -0.0037434)
(-0.00518455 -0.0064756 -0.00322142)
(-0.000774765 -0.00252315 -0.00168806)
(-0.000566221 0.00471895 -0.000577954)
(-0.00281036 0.00839209 -0.000699141)
(-0.00615883 0.00971956 -0.000718537)
(-0.00958482 0.0101846 -0.000708952)
(-0.0131123 0.0103607 -0.000710444)
(-0.0166529 0.0104313 -0.000729199)
(-0.0201666 0.0104135 -0.000771287)
(-0.0236045 0.0102578 -0.000847377)
(-0.0268891 0.00988122 -0.000972562)
(-0.0299034 0.00917545 -0.00116679)
(-0.0324775 0.00801344 -0.00145418)
(-0.0343772 0.00626408 -0.0018598)
(-0.035299 0.0038223 -0.00240306)
(-0.0348784 0.000662426 -0.00308561)
(-0.0327261 -0.00308547 -0.003869)
(-0.0285068 -0.00703616 -0.00463225)
(-0.0221714 -0.0103919 -0.00515652)
(-0.0143661 -0.0119038 -0.00515948)
(-0.00577057 -0.0102398 -0.00437253)
(-0.000669067 -0.00389856 -0.00218536)
(-0.000561114 0.00663149 -0.000645657)
(-0.00283852 0.0117085 -0.000798356)
(-0.00625949 0.0135297 -0.000827457)
(-0.00976331 0.0141595 -0.000820143)
(-0.0133863 0.0143986 -0.000823802)
(-0.0170499 0.0145042 -0.000847395)
(-0.0207323 0.0145078 -0.000899499)
(-0.0244071 0.0143517 -0.000994289)
(-0.0280227 0.013932 -0.00115229)
(-0.0314879 0.0131068 -0.00140204)
(-0.0346513 0.0116995 -0.001781)
(-0.0372765 0.00951207 -0.0023336)
(-0.0390176 0.00635889 -0.00310205)
(-0.0394047 0.00213623 -0.00410781)
(-0.0378739 -0.0030619 -0.00533045)
(-0.0338211 -0.00879397 -0.00661477)
(-0.0268688 -0.0139518 -0.00758629)
(-0.0175638 -0.0165998 -0.00771083)
(-0.00667004 -0.0144287 -0.00643869)
(-0.000463439 -0.00509314 -0.00302526)
(-0.000537895 0.0085603 -0.000700206)
(-0.00279346 0.0150915 -0.000882246)
(-0.00621809 0.0174308 -0.000920617)
(-0.00973761 0.0182439 -0.000916827)
(-0.0133991 0.0185742 -0.000925437)
(-0.0171382 0.0187628 -0.000958578)
(-0.020958 0.0188641 -0.00102797)
(-0.0248642 0.0188208 -0.00115234)
(-0.0288442 0.0185159 -0.00135961)
(-0.0328512 0.017779 -0.00169047)
(-0.0367755 0.016383 -0.00220246)
(-0.0404042 0.0140469 -0.00297167)
(-0.0433709 0.0104639 -0.00408489)
(-0.0451113 0.00537674 -0.0056166)
(-0.04487 -0.00127355 -0.00758282)
(-0.0416551 -0.009063 -0.00980026)
(-0.0344844 -0.0167781 -0.0116831)
(-0.0233607 -0.0216291 -0.0121457)
(-0.0086845 -0.0193906 -0.010033)
(-0.000238713 -0.0061158 -0.00437905)
(-0.000504313 0.0104726 -0.00075045)
(-0.00270753 0.0184938 -0.000962021)
(-0.00609617 0.0213738 -0.0010094)
(-0.00959051 0.0223899 -0.00100907)
(-0.013246 0.0228427 -0.00102302)
(-0.017014 0.0231698 -0.00106708)
(-0.0209261 0.0234601 -0.00115679)
(-0.0250279 0.0236696 -0.00131655)
(-0.0293601 0.0236835 -0.00158359)
(-0.0339417 0.0233185 -0.00201494)
(-0.0387403 0.0223082 -0.00269694)
(-0.0436206 0.0202914 -0.00375491)
(-0.048269 0.0168181 -0.00535413)
(-0.0521078 0.011406 -0.00766942)
(-0.054199 0.00368196 -0.0107868)
(-0.0532295 -0.00635252 -0.0145104)
(-0.0472942 -0.0178278 -0.0178284)
(-0.0346718 -0.0273973 -0.0188757)
(-0.0140573 -0.0266143 -0.0155608)
(-0.000459417 -0.0078137 -0.0065374)
(-0.000462662 0.0123506 -0.000802132)
(-0.00259235 0.0218907 -0.00104506)
(-0.00591449 0.0253288 -0.00110056)
(-0.00934287 0.0265595 -0.00110151)
(-0.0129378 0.0271571 -0.00111806)
(-0.0166651 0.0276701 -0.0011702)
(-0.020585 0.0282366 -0.00127769)
(-0.0247872 0.028844 -0.00147118)
(-0.0293755 0.0294036 -0.0017986)
(-0.0344577 0.0297502 -0.00233661)
(-0.0401196 0.0296171 -0.00320794)
(-0.0463779 0.028605 -0.00460377)
(-0.0531051 0.026159 -0.0067971)
(-0.0599273 0.0215523 -0.0100976)
(-0.0660882 0.0138313 -0.0146495)
(-0.0700416 0.00164448 -0.0199338)
(-0.0685712 -0.0161312 -0.0242065)
(-0.0562527 -0.0362979 -0.0251494)
(-0.0277243 -0.0410134 -0.0210705)
(-0.00263979 -0.013331 -0.00990084)
(-0.000415271 0.0141831 -0.00085992)
(-0.00245748 0.0252654 -0.00113735)
(-0.00568738 0.0292673 -0.00119907)
(-0.00900345 0.0307058 -0.00119675)
(-0.0124669 0.0314476 -0.00120969)
(-0.0160529 0.0321683 -0.00126237)
(-0.0198467 0.0330718 -0.00137875)
(-0.0239789 0.0341985 -0.00159522)
(-0.0286172 0.035517 -0.00196951)
(-0.033968 0.0369276 -0.00259669)
(-0.0402691 0.0382341 -0.0036352)
(-0.0477699 0.0391027 -0.00533762)
(-0.0567084 0.0389992 -0.00804865)
(-0.0672909 0.0369547 -0.0120605)
(-0.0795368 0.0308269 -0.0171226)
(-0.092199 0.0159576 -0.0216709)
(-0.0998863 -0.0141197 -0.0231421)
(-0.0903429 -0.0557684 -0.021422)
(-0.0539671 -0.0731936 -0.019908)
(-0.00953675 -0.0304585 -0.0144448)
(-0.000367661 0.0159697 -0.000929502)
(-0.00232196 0.0286138 -0.00124604)
(-0.00544369 0.0331647 -0.00131114)
(-0.0085985 0.0347746 -0.00129862)
(-0.0118452 0.035622 -0.00129832)
(-0.0151604 0.0365274 -0.00133939)
(-0.0186453 0.0377759 -0.00144924)
(-0.0224592 0.039482 -0.00166796)
(-0.0268183 0.0417059 -0.00205832)
(-0.0320128 0.0444696 -0.00272327)
(-0.038424 0.0477397 -0.00383069)
(-0.0465541 0.0513837 -0.00561598)
(-0.0571415 0.0550118 -0.00825049)
(-0.0713561 0.0571505 -0.0113852)
(-0.0905798 0.0530133 -0.0133413)
(-0.114086 0.0317183 -0.011028)
(-0.132542 -0.0204352 -0.00290776)
(-0.125835 -0.0952427 0.00313917)
(-0.0853947 -0.130663 -0.00569539)
(-0.0221686 -0.0725838 -0.0159404)
(-0.000331172 0.0177308 -0.00101956)
(-0.00222246 0.0319511 -0.00138124)
(-0.00524064 0.0370021 -0.00144532)
(-0.00819085 0.038702 -0.00141336)
(-0.0111296 0.0395642 -0.00138708)
(-0.0140258 0.0405687 -0.00140064)
(-0.0169834 0.0420895 -0.00148327)
(-0.0201675 0.0443277 -0.00167457)
(-0.0238074 0.0474585 -0.00203276)
(-0.0282262 0.0516698 -0.0026441)
(-0.0338828 0.057166 -0.0036216)
(-0.0414447 0.0640813 -0.00500328)
(-0.0520882 0.072036 -0.00631802)
(-0.067913 0.0782517 -0.00569529)
(-0.0914194 0.0735587 0.000533876)
(-0.122282 0.0399932 0.0160005)
(-0.148442 -0.039477 0.0372477)
(-0.144546 -0.14613 0.0418535)
(-0.105952 -0.197786 0.0170224)
(-0.0333256 -0.146839 -0.00638924)
(-0.000329607 0.0195314 -0.00114663)
(-0.00222971 0.0353564 -0.00156546)
(-0.00518337 0.0408262 -0.00162645)
(-0.00789733 0.0424834 -0.00156509)
(-0.0104398 0.043203 -0.00149698)
(-0.0127667 0.044138 -0.00146359)
(-0.0149738 0.0457531 -0.0014952)
(-0.0172021 0.0483313 -0.00162648)
(-0.0196439 0.0521581 -0.00189977)
(-0.0225712 0.0575803 -0.00235155)
(-0.0263963 0.0650167 -0.00296052)
(-0.0317646 0.0747407 -0.00337668)
(-0.0400114 0.0860179 -0.00216412)
(-0.0538885 0.0941719 0.00424309)
(-0.0770042 0.0861329 0.0209786)
(-0.110803 0.0398617 0.0506942)
(-0.144508 -0.0585922 0.0794377)
(-0.14304 -0.182397 0.0706197)
(-0.111999 -0.251342 0.0331273)
(-0.035468 -0.230709 0.00565244)
(-0.000395733 0.0214566 -0.00133331)
(-0.00243153 0.03885 -0.0018105)
(-0.00541018 0.0445303 -0.00185231)
(-0.00789188 0.045916 -0.00174423)
(-0.00997721 0.0462862 -0.00162015)
(-0.011606 0.0469438 -0.00152727)
(-0.0128657 0.0484062 -0.00149329)
(-0.013855 0.0510038 -0.00154221)
(-0.0146883 0.0550931 -0.00169744)
(-0.0155156 0.0611077 -0.00192102)
(-0.0166081 0.0695578 -0.00204086)
(-0.0184355 0.0806702 -0.00129927)
(-0.0223424 0.0932793 0.00256447)
(-0.031519 0.101414 0.0143875)
(-0.0514021 0.090461 0.0398774)
(-0.0863591 0.0372095 0.0778237)
(-0.125941 -0.0689442 0.10222)
(-0.123457 -0.202887 0.0742161)
(-0.109332 -0.291236 0.0331221)
(-0.0308484 -0.305542 0.00365269)
(-0.000636287 0.0238205 -0.00165674)
(-0.00310363 0.0430071 -0.00224483)
(-0.00623729 0.0488043 -0.0022849)
(-0.00843349 0.049705 -0.00211858)
(-0.00995124 0.0493807 -0.00190588)
(-0.0107692 0.0493506 -0.00171508)
(-0.0109648 0.0502063 -0.00158243)
(-0.010566 0.0523058 -0.0015237)
(-0.00958655 0.0560187 -0.00154863)
(-0.00802547 0.0617677 -0.00157632)
(-0.00596753 0.0700364 -0.0013045)
(-0.00359637 0.0809551 0.000240848)
(-0.00208505 0.093222 0.00570058)
(-0.00454813 0.100748 0.0203813)
(-0.0181955 0.0896492 0.0498911)
(-0.0484649 0.0362407 0.0871993)
(-0.0861605 -0.0699646 0.100335)
(-0.0847269 -0.206157 0.0609322)
(-0.0969504 -0.31286 0.0255312)
(-0.0222252 -0.370363 -0.00772207)
(-0.00101173 0.0270889 -0.00212808)
(-0.00400025 0.047002 -0.00274489)
(-0.00759946 0.0519853 -0.00273322)
(-0.00974002 0.0516678 -0.00246555)
(-0.0108501 0.0504617 -0.00216726)
(-0.0108573 0.0497546 -0.00189558)
(-0.00991336 0.0500002 -0.00168811)
(-0.00803626 0.0514393 -0.00155234)
(-0.00518048 0.0543708 -0.00150209)
(-0.00120129 0.0591102 -0.00143313)
(0.00402611 0.0661126 -0.00101839)
(0.010677 0.0753224 0.000663757)
(0.0178713 0.0856367 0.0060606)
(0.0237424 0.0919575 0.0196906)
(0.0208726 0.0834967 0.0468557)
(0.00556433 0.0375529 0.0774378)
(-0.0273829 -0.0590582 0.0824954)
(-0.034333 -0.183392 0.0469632)
(-0.0736646 -0.31201 0.0191735)
(-0.00883998 -0.418726 -0.0200237)
(-0.00311087 0.0299059 -0.0031204)
(-0.00833067 0.054259 -0.00399353)
(-0.0114002 0.0589868 -0.00392367)
(-0.0126512 0.0579128 -0.00354086)
(-0.012507 0.0549787 -0.00304795)
(-0.0113706 0.0524588 -0.00257795)
(-0.00928782 0.0509263 -0.00220156)
(-0.00613574 0.0506224 -0.00193827)
(-0.00174801 0.0517661 -0.00181588)
(0.00423969 0.0545118 -0.00173893)
(0.0120543 0.0591825 -0.0014394)
(0.0221106 0.065512 -0.000218582)
(0.0337417 0.0725789 0.00381324)
(0.0465509 0.0763105 0.0135503)
(0.053229 0.0703958 0.0336117)
(0.0549272 0.0364685 0.0566026)
(0.0262903 -0.0423676 0.0590682)
(0.0156964 -0.148681 0.0376346)
(-0.0481097 -0.298127 0.0152447)
(0.00849667 -0.450687 -0.0318103)
(-0.00125184 0.0442879 -0.00508813)
(-0.00708312 0.0574737 -0.0057039)
(-0.0146984 0.0583388 -0.0053132)
(-0.0161869 0.0537289 -0.00445268)
(-0.016383 0.0501136 -0.00378375)
(-0.0145191 0.0474644 -0.00318042)
(-0.0113108 0.0457772 -0.00271648)
(-0.00672077 0.044913 -0.00240422)
(-0.000696402 0.0449908 -0.00230959)
(0.00715279 0.0460346 -0.00236861)
(0.0170318 0.0483335 -0.0023948)
(0.0294631 0.0514815 -0.00191546)
(0.0435018 0.0549655 0.0003371)
(0.0605012 0.0554407 0.00583105)
(0.0710196 0.0496587 0.0178802)
(0.0846533 0.0264558 0.0339229)
(0.0599209 -0.0292057 0.0364009)
(0.056459 -0.110831 0.0298141)
(-0.019943 -0.277206 0.0118159)
(0.0340444 -0.465317 -0.042842)
(-0.0124863 0.0347197 -0.00594061)
(-0.0232977 0.0779666 -0.00794655)
(-0.0198996 0.0763517 -0.00824689)
(-0.0227086 0.0704833 -0.00757096)
(-0.0206702 0.0624843 -0.00634073)
(-0.0168827 0.055712 -0.00514786)
(-0.0113006 0.0502764 -0.00424692)
(-0.00417322 0.0460173 -0.00367208)
(0.00431566 0.0429895 -0.00348158)
(0.0146217 0.0408631 -0.00365821)
(0.0263481 0.0399238 -0.00402093)
(0.0405908 0.0394318 -0.00427938)
(0.0550319 0.0399853 -0.00367535)
(0.0738983 0.0385288 -0.00112306)
(0.0836266 0.0348053 0.0044047)
(0.104415 0.0219024 0.0151682)
(0.086378 -0.0121795 0.0162018)
(0.106056 -0.0711463 0.0194475)
(0.0359155 -0.250655 0.00740053)
(0.077316 -0.458814 -0.0536686)
(-0.0763079 0.0989902 -0.0201916)
(-0.0609483 0.0596619 -0.0166852)
(-0.0598029 0.0589346 -0.0137474)
(-0.0363981 0.0510472 -0.0111597)
(-0.0165991 0.0430609 -0.00937579)
(0.00539723 0.0371693 -0.00786475)
(0.0258396 0.0329449 -0.00677645)
(0.0464582 0.0293577 -0.00607787)
(0.0650094 0.0268384 -0.00573588)
(0.0852089 0.0244279 -0.00580371)
(0.101914 0.0231795 -0.0061668)
(0.123832 0.0216426 -0.00673674)
(0.137682 0.0208741 -0.00722775)
(0.16542 0.0193539 -0.00671905)
(0.17165 0.0142755 -0.00528512)
(0.207447 0.00650626 -0.000302462)
(0.190646 -0.0245277 0.00349261)
(0.230732 -0.0716853 0.0063924)
(0.15541 -0.230337 0.00210561)
(0.15037 -0.411245 -0.0646729)
(0.119074 0.140123 -0.0172224)
(0.1514 0.0854575 -0.0191936)
(0.228575 0.0630144 -0.0195251)
(0.283435 0.0475345 -0.0183453)
(0.324658 0.036656 -0.0166556)
(0.362798 0.0286106 -0.0151631)
(0.391369 0.0230081 -0.0136919)
(0.422286 0.0187418 -0.0126377)
(0.441735 0.0157396 -0.0114973)
(0.469952 0.0132897 -0.0109498)
(0.481808 0.011527 -0.0101268)
(0.510945 0.0100896 -0.0101551)
(0.514828 0.00884454 -0.00934305)
(0.547433 0.00764718 -0.00982641)
(0.539947 0.00556971 -0.00806708)
(0.574003 0.0017307 -0.00886733)
(0.540781 -0.00681481 -0.00508505)
(0.552911 -0.0252832 -0.00995069)
(0.423742 -0.0673963 -0.011378)
(0.302443 -0.144822 -0.0777501)
(-0.000154486 0.000163086 -0.000253423)
(-0.00113156 0.000469296 -0.000301057)
(-0.0027703 0.000579494 -0.000299288)
(-0.00444994 0.000617287 -0.000298182)
(-0.00619095 0.000637426 -0.000315399)
(-0.00795027 0.00065856 -0.000353084)
(-0.00971338 0.000680737 -0.000414225)
(-0.0114557 0.000697407 -0.000504679)
(-0.0131303 0.000699135 -0.000632312)
(-0.0146642 0.000673809 -0.000805882)
(-0.0159523 0.000606838 -0.00103346)
(-0.0168557 0.000482639 -0.0013198)
(-0.0172061 0.000288823 -0.00166217)
(-0.0168202 2.01721e-05 -0.00204581)
(-0.0155345 -0.000313981 -0.00243439)
(-0.0132618 -0.000667694 -0.00277305)
(-0.0100886 -0.000953075 -0.00298889)
(-0.00639976 -0.00104626 -0.00300801)
(-0.00252538 -0.000825539 -0.00274436)
(-0.000276971 -0.000153443 -0.00177216)
(-0.000503411 0.00125477 -0.000468535)
(-0.00257491 0.00257532 -0.000615528)
(-0.00571976 0.0030683 -0.000638294)
(-0.00894836 0.00323939 -0.00064054)
(-0.0122629 0.0033051 -0.000662359)
(-0.0155676 0.003339 -0.000712215)
(-0.0188112 0.00334459 -0.000796897)