/*--------------------------------*- C++ -*----------------------------------*\
  =========                 |
  \\      /  F ield         | OpenFOAM: The Open Source CFD Toolbox
   \\    /   O peration     | Website:  https://openfoam.org
    \\  /    A nd           | Version:  10
     \\/     M anipulation  |
\*---------------------------------------------------------------------------*/
FoamFile
{
    format      ascii;
    class       volScalarField;
    location    "7.125";
    object      p;
}
// * * * * * * * * * * * * * * * * * * * * * * * * * * * * * * * * * * * * * //

dimensions      [0 2 -2 0 0 0 0];

internalField   nonuniform List<scalar> 
475
(
-0.0588439
-0.0842434
-0.113625
-0.137291
-0.160094
-0.0845969
-0.0979211
-0.114176
-0.133212
-0.150107
-0.0826997
-0.092052
-0.107024
-0.124459
-0.140797
-0.0819748
-0.0928336
-0.107701
-0.123063
-0.136576
-0.0521671
-0.0790929
-0.102681
-0.120315
-0.133008
-0.178346
-0.188666
-0.192376
-0.194646
-0.198072
-0.203103
-0.208837
-0.213059
-0.213986
-0.210743
-0.203115
-0.191374
-0.176753
-0.160953
-0.145371
-0.130543
-0.116985
-0.107131
-0.102775
-0.102969
-0.105003
-0.106369
-0.105114
-0.10068
-0.094116
-0.0860488
-0.0766464
-0.0667602
-0.0571066
-0.0480293
-0.0396725
-0.0318689
-0.0245464
-0.0180189
-0.0127826
-0.00909133
-0.00665682
-0.00484349
-0.00319062
-0.00153111
-6.75538e-05
0.000998983
0.00147073
0.00131562
0.000615336
-0.166662
-0.178134
-0.183963
-0.186008
-0.186834
-0.18751
-0.18794
-0.187368
-0.185061
-0.180749
-0.174481
-0.166599
-0.157847
-0.149008
-0.140511
-0.131618
-0.123302
-0.117978
-0.117132
-0.119769
-0.123238
-0.125032
-0.123274
-0.117309
-0.108394
-0.0977916
-0.086241
-0.0743254
-0.0626181
-0.0515613
-0.0412683
-0.0318103
-0.0232843
-0.0160165
-0.0104456
-0.00666978
-0.00425479
-0.00249582
-0.000913215
0.000640126
0.00193237
0.0027218
0.00284296
0.00221725
0.00105414
-0.154112
-0.163576
-0.16911
-0.171291
-0.171165
-0.169542
-0.166821
-0.163171
-0.158718
-0.153775
-0.149447
-0.14685
-0.146272
-0.145131
-0.139554
-0.130999
-0.126995
-0.127099
-0.128156
-0.130044
-0.132117
-0.131786
-0.127948
-0.120951
-0.111167
-0.0997081
-0.0873559
-0.0748675
-0.0627635
-0.0513041
-0.0405791
-0.0306967
-0.0219084
-0.0145757
-0.00897656
-0.00506326
-0.00241373
-0.000464138
0.00116637
0.00258793
0.00362683
0.00410089
0.0038744
0.00289223
0.00132748
-0.147251
-0.154991
-0.159603
-0.161286
-0.160188
-0.156832
-0.151557
-0.144937
-0.137488
-0.130654
-0.126802
-0.1285
-0.13909
-0.149496
-0.143051
-0.123689
-0.113545
-0.116482
-0.125393
-0.132771
-0.136288
-0.135511
-0.13096
-0.122302
-0.111378
-0.0991093
-0.0862676
-0.0734585
-0.0611221
-0.0495026
-0.0387873
-0.0290887
-0.0205888
-0.0135426
-0.00809563
-0.00413344
-0.00131011
0.000783388
0.00243159
0.00371912
0.00453368
0.00476622
0.00429303
0.00313357
0.00136595
-0.142542
-0.149488
-0.153767
-0.155131
-0.153524
-0.149225
-0.142656
-0.134624
-0.125837
-0.118386
-0.113914
-0.117567
-0.131542
-0.145493
-0.146625
-0.138708
-0.130042
-0.126012
-0.126582
-0.12946
-0.130967
-0.129673
-0.124922
-0.117378
-0.107447
-0.095982
-0.0837819
-0.0714883
-0.0595442
-0.0481059
-0.0376138
-0.0281343
-0.0198725
-0.0130255
-0.00766669
-0.00367673
-0.00076714
0.00138401
0.00301186
0.0041858
0.0048458
0.00489805
0.00427733
0.00303809
0.00123799
-0.203944
-0.204662
-0.20584
-0.207295
-0.210195
-0.215785
-0.223204
-0.230281
-0.234347
-0.232856
-0.224486
-0.208863
-0.186548
-0.158875
-0.128209
-0.0973918
-0.0691373
-0.0452423
-0.0267629
-0.0142602
-0.00734011
-0.00500873
-0.00597038
-0.00891645
-0.012708
-0.0164595
-0.0196358
-0.0220994
-0.0240072
-0.0254704
-0.0264481
-0.0269156
-0.0266228
-0.0255226
-0.023672
-0.0211344
-0.018281
-0.0154666
-0.0128634
-0.0105416
-0.00832599
-0.00610369
-0.00396125
-0.00201841
-0.000389939
-0.197866
-0.200014
-0.20182
-0.205073
-0.210315
-0.217971
-0.226921
-0.235071
-0.239986
-0.239333
-0.231888
-0.217065
-0.194933
-0.167013
-0.135674
-0.103925
-0.0750233
-0.0505982
-0.0316855
-0.0186748
-0.0112863
-0.00851404
-0.00903729
-0.0115767
-0.0150196
-0.0184213
-0.0211735
-0.0231505
-0.0245917
-0.0257201
-0.0267084
-0.0272889
-0.0272089
-0.0259641
-0.0234782
-0.0202318
-0.0169057
-0.0140964
-0.0120297
-0.0102701
-0.00847415
-0.00642578
-0.0042571
-0.00224597
-0.000508777
-0.206804
-0.205225
-0.205126
-0.20689
-0.212283
-0.221042
-0.230998
-0.239844
-0.245592
-0.244977
-0.237439
-0.222524
-0.200653
-0.173346
-0.142823
-0.112151
-0.0842239
-0.0607379
-0.0426078
-0.0302742
-0.0233126
-0.0206448
-0.0208818
-0.0227064
-0.0250662
-0.0271808
-0.0286427
-0.0293948
-0.029483
-0.0292104
-0.0286174
-0.0275518
-0.0258709
-0.0236712
-0.0210954
-0.0182614
-0.0154878
-0.0130145
-0.0109146
-0.00909624
-0.00737847
-0.00556817
-0.00371169
-0.00198973
-0.000555497
-0.194025
-0.196219
-0.197677
-0.201118
-0.20741
-0.216491
-0.22645
-0.235242
-0.240697
-0.241044
-0.234572
-0.220802
-0.200399
-0.175418
-0.147974
-0.120681
-0.0961254
-0.0757942
-0.0605562
-0.0507679
-0.0455939
-0.0435903
-0.0433512
-0.0437608
-0.0439574
-0.043442
-0.0421495
-0.0401601
-0.0374709
-0.0343362
-0.031117
-0.0280133
-0.0250492
-0.0221694
-0.0191232
-0.0159136
-0.0128261
-0.0101689
-0.00813795
-0.00653562
-0.00512744
-0.00371592
-0.00238685
-0.00120551
-0.000406652
-0.229995
-0.208503
-0.204965
-0.203869
-0.207125
-0.214647
-0.223365
-0.230312
-0.233885
-0.232523
-0.225389
-0.212134
-0.19375
-0.172265
-0.149649
-0.127686
-0.108331
-0.093308
-0.0834775
-0.0783741
-0.0764204
-0.0757293
-0.0749028
-0.0731916
-0.0701259
-0.0656628
-0.0604163
-0.054392
-0.0479464
-0.0414955
-0.0354402
-0.0298706
-0.0246914
-0.0198766
-0.0157129
-0.0123312
-0.00967382
-0.0075626
-0.00576532
-0.00409434
-0.0025856
-0.00129946
-0.000415661
7.88423e-05
5.21542e-05
)
;

boundaryField
{
    inlet
    {
        type            zeroGradient;
    }
    outlet
    {
        type            fixedValue;
        value           uniform 0;
    }
    upperWall
    {
        type            zeroGradient;
    }
    lowerWall
    {
        type            zeroGradient;
    }
    frontAndBack
    {
        type            empty;
    }
}


// ************************************************************************* //
