/*--------------------------------*- C++ -*----------------------------------*\
  =========                 |
  \\      /  F ield         | OpenFOAM: The Open Source CFD Toolbox
   \\    /   O peration     | Website:  https://openfoam.org
    \\  /    A nd           | Version:  10
     \\/     M anipulation  |
\*---------------------------------------------------------------------------*/
FoamFile
{
    format      ascii;
    class       volScalarField;
    location    "9.35";
    object      p;
}
// * * * * * * * * * * * * * * * * * * * * * * * * * * * * * * * * * * * * * //

dimensions      [0 2 -2 0 0 0 0];

internalField   nonuniform List<scalar> 
400
(
-8.15996e-09
-3.12256e-05
2.64008e-05
0.000138771
0.000314581
0.000557116
0.000871715
0.00126538
0.0017454
0.00231768
0.00298446
0.0037412
0.00457171
0.0054432
0.00630017
0.00706635
0.00765288
0.00799597
0.0081113
0.00796969
3.45623e-05
2.97256e-06
6.93885e-05
0.000185174
0.000360572
0.000599691
0.000908225
0.00129313
0.00176155
0.00231965
0.00297057
0.00371129
0.00452643
0.00538771
0.00624072
0.00700751
0.00759236
0.00792525
0.00802856
0.00786709
-3.80936e-05
-7.93996e-05
-1.47382e-05
9.59871e-05
0.00026371
0.000492679
0.000789103
0.0011609
0.00161684
0.00216574
0.00281446
0.00356459
0.00440845
0.00532008
0.00624232
0.00708353
0.00772005
0.00805112
0.00810505
0.00787111
-0.000195557
-0.000243561
-0.000183426
-8.17654e-05
7.31073e-05
0.000285702
0.000562994
0.000914299
0.00135079
0.00188527
0.0025308
0.00329695
0.00418366
0.00517282
0.00620839
0.00717889
0.00791377
0.00824286
0.008197
0.00784012
-0.000448139
-0.000501548
-0.000449483
-0.000361686
-0.00022579
-3.69721e-05
0.000212574
0.000533728
0.00094046
0.00145029
0.00208407
0.00286341
0.0038026
0.00489417
0.00609111
0.00726157
0.00816263
0.00848852
0.008267
0.00770768
-0.00079407
-0.000852577
-0.000812107
-0.000743325
-0.000633525
-0.00047789
-0.000268229
7.43613e-06
0.000365318
0.000827233
0.00142182
0.00218446
0.00314984
0.00433314
0.00572445
0.00718297
0.00836444
0.00869935
0.00819132
0.00730668
-0.00122673
-0.00129066
-0.00126527
-0.00122115
-0.00114584
-0.00103515
-0.000881669
-0.00067403
-0.000395812
-2.35403e-05
0.000476221
0.00114967
0.0020553
0.00325185
0.00476938
0.00655201
0.00816525
0.00856689
0.00774319
0.00642369
-0.00173683
-0.00180681
-0.00179979
-0.00178611
-0.00175432
-0.00170201
-0.00162433
-0.00151348
-0.00135778
-0.00113913
-0.000829561
-0.000388926
0.000239589
0.00114282
0.00244828
0.00431528
0.00644962
0.00727383
0.00656116
0.00507276
-0.00231264
-0.00238925
-0.00240305
-0.00242463
-0.00244455
-0.0024637
-0.0024823
-0.00250007
-0.00251667
-0.00253185
-0.00254624
-0.00256869
-0.00263932
-0.00278553
-0.00275713
-0.00177444
0.000616929
0.00311888
0.00426123
0.0042188
-0.00294023
-0.00302374
-0.00305886
-0.00311789
-0.00319446
-0.0032944
-0.0034258
-0.00360045
-0.00383763
-0.00417027
-0.00465755
-0.00541812
-0.00672744
-0.0089619
-0.0119542
-0.0135698
-0.0115156
-0.00607357
-0.000434779
0.00368524
-0.00360448
-0.00369468
-0.00374842
-0.00384273
-0.00397472
-0.00415693
-0.00440731
-0.00475334
-0.00524079
-0.00594997
-0.00703007
-0.00876544
-0.0117437
-0.0168814
-0.0240525
-0.0297629
-0.0286215
-0.020167
-0.00986304
-0.00117354
-0.0042904
-0.00438578
-0.00444967
-0.00457003
-0.0047472
-0.00500121
-0.00535955
-0.00586484
-0.00658866
-0.00765643
-0.00930181
-0.0119606
-0.0164337
-0.0238439
-0.0340202
-0.042373
-0.0425178
-0.0335321
-0.0221799
-0.0105479
-0.00498817
-0.00508754
-0.00514831
-0.00527822
-0.00547967
-0.00578021
-0.00621423
-0.00683328
-0.00772307
-0.00902896
-0.0110165
-0.0141628
-0.0192874
-0.0273311
-0.0381944
-0.0468322
-0.0474427
-0.0391408
-0.0297049
-0.0182602
-0.00568796
-0.00578077
-0.00580894
-0.0059191
-0.00611582
-0.0064303
-0.00689623
-0.00756612
-0.0085247
-0.00990767
-0.0119603
-0.0151122
-0.0200059
-0.0272585
-0.0366967
-0.0432038
-0.0445284
-0.0370239
-0.0311962
-0.0207148
-0.00641572
-0.00650822
-0.00647762
-0.00654212
-0.00669182
-0.00696926
-0.00740751
-0.00805367
-0.00898208
-0.0102986
-0.0121727
-0.0149533
-0.0190619
-0.0246455
-0.0315591
-0.0361175
-0.0368156
-0.0305993
-0.0278479
-0.0174513
-0.00725794
-0.00715125
-0.00698001
-0.00690937
-0.00698347
-0.00721668
-0.00762164
-0.00822296
-0.00907761
-0.0102315
-0.0118695
-0.0141318
-0.0172717
-0.0211958
-0.0258237
-0.0284425
-0.0285667
-0.0230886
-0.0222233
-0.00816215
-0.00770164
-0.00808711
-0.00772243
-0.00765926
-0.00758289
-0.00766053
-0.00790372
-0.00834461
-0.00903069
-0.0100001
-0.0113659
-0.0131903
-0.0156097
-0.0184
-0.0215199
-0.0228967
-0.022468
-0.0172068
-0.0148887
0.00979445
-0.0110717
-0.0085009
-0.00777482
-0.00707862
-0.00691643
-0.00701923
-0.00733219
-0.00781676
-0.00850021
-0.00940059
-0.010619
-0.0121685
-0.0141748
-0.0163138
-0.0185225
-0.0190195
-0.0177827
-0.0108781
-0.00179969
0.0414065
-0.0076642
-0.0105974
-0.0093851
-0.00927916
-0.00872138
-0.00840917
-0.00829604
-0.00840482
-0.00878963
-0.00943542
-0.0104593
-0.0118082
-0.0137289
-0.0158024
-0.0181938
-0.0184693
-0.0163953
-0.00268091
0.0218676
0.0983361
-0.0329092
-0.00775543
-0.00608793
-0.00524133
-0.00496845
-0.00511731
-0.00557039
-0.00614029
-0.00691768
-0.00782505
-0.00909137
-0.0105421
-0.0123647
-0.0138081
-0.0145446
-0.0108986
-7.89757e-05
0.0338797
0.0993384
0.229543
)
;

boundaryField
{
    movingWall
    {
        type            zeroGradient;
    }
    fixedWalls
    {
        type            zeroGradient;
    }
    frontAndBack
    {
        type            empty;
    }
}


// ************************************************************************* //
