/*--------------------------------*- C++ -*----------------------------------*\
  =========                 |
  \\      /  F ield         | OpenFOAM: The Open Source CFD Toolbox
   \\    /   O peration     | Website:  https://openfoam.org
    \\  /    A nd           | Version:  10
     \\/     M anipulation  |
\*---------------------------------------------------------------------------*/
FoamFile
{
    format      ascii;
    class       surfaceScalarField;
    location    "5.775";
    object      phi;
}
// * * * * * * * * * * * * * * * * * * * * * * * * * * * * * * * * * * * * * //

dimensions      [0 3 -1 0 0 0 0];

internalField   nonuniform List<scalar> 
760
(
-9.00302e-06
9.00302e-06
-2.98667e-05
2.08637e-05
-5.45248e-05
2.46581e-05
-7.97332e-05
2.52083e-05
-0.000104448
2.47146e-05
-0.000128227
2.3779e-05
-0.000150642
2.24153e-05
-0.000171126
2.04838e-05
-0.000188936
1.78098e-05
-0.000203143
1.42069e-05
-0.000212638
9.49522e-06
-0.000216166
3.52858e-06
-0.000212402
-3.76483e-06
-0.000200125
-1.22762e-05
-0.000178473
-2.16523e-05
-0.000147281
-3.11922e-05
-0.000107672
-3.96089e-05
-6.30941e-05
-4.45779e-05
-2.14164e-05
-4.16778e-05
-2.14163e-05
-2.19186e-05
3.09216e-05
-6.22498e-05
6.11949e-05
-0.000108185
7.05935e-05
-0.000154537
7.156e-05
-0.000199352
6.95296e-05
-0.000241603
6.60301e-05
-0.000280372
6.11845e-05
-0.000314625
5.4737e-05
-0.000343147
4.63315e-05
-0.000364519
3.5579e-05
-0.000377097
2.20727e-05
-0.000379198
5.62993e-06
-0.000369016
-1.39466e-05
-0.000344929
-3.63632e-05
-0.000305927
-6.06541e-05
-0.000252053
-8.50664e-05
-0.000185225
-0.000106437
-0.000110818
-0.000118984
-4.0566e-05
-0.00011193
-6.19824e-05
-2.72094e-05
5.81311e-05
-7.57077e-05
0.000109693
-0.000130322
0.000125208
-0.000185067
0.000126305
-0.000237734
0.000122196
-0.000287157
0.000115453
-0.00033231
0.000106337
-0.000372062
9.44893e-05
-0.000405103
7.93723e-05
-0.000429903
6.03791e-05
-0.000444744
3.69133e-05
-0.000447653
8.53952e-06
-0.00043642
-2.51801e-05
-0.000409112
-6.36713e-05
-0.000364257
-0.000105508
-0.000301515
-0.000147809
-0.000222721
-0.000185231
-0.000133985
-0.00020772
-4.93827e-05
-0.000196533
-0.000111365
-2.92187e-05
8.73498e-05
-8.13704e-05
0.000161845
-0.000139939
0.000183777
-0.000198595
0.000184961
-0.000255111
0.000178713
-0.000308375
0.000168717
-0.000357419
0.000155381
-0.000401172
0.000138243
-0.00043836
0.00011656
-0.000467432
8.94507e-05
-0.000486512
5.59932e-05
-0.000493406
1.54342e-05
-0.00048544
-3.3146e-05
-0.000459746
-8.93656e-05
-0.000413813
-0.000151441
-0.000346185
-0.000215437
-0.000258098
-0.000273318
-0.000156256
-0.000309562
-5.76025e-05
-0.000295186
-0.000168968
-3.03583e-05
0.000117708
-8.50473e-05
0.000216534
-0.00014654
0.000245269
-0.000208259
0.00024668
-0.000268031
0.000238485
-0.000324874
0.00022556
-0.000377972
0.000208479
-0.000426402
0.000186673
-0.00046901
0.000159168
-0.000504281
0.000124722
-0.000530211
8.19226e-05
-0.000544186
2.94101e-05
-0.000542946
-3.43862e-05
-0.000522297
-0.000110014
-0.00047801
-0.000195728
-0.00040661
-0.000286837
-0.000307679
-0.000372249
-0.000188306
-0.000428936
-6.97497e-05
-0.000413742
-0.000238717
-3.14962e-05
0.000149204
-8.88253e-05
0.000273863
-0.000153441
0.000309884
-0.000218496
0.000311735
-0.000281896
0.000301885
-0.000342848
0.000286511
-0.000400765
0.000266397
-0.000454973
0.000240881
-0.000504546
0.000208741
-0.000548126
0.000168302
-0.00058369
0.000117487
-0.000608275
5.39954e-05
-0.000617921
-2.47403e-05
-0.000606628
-0.000121308
-0.000567635
-0.000234721
-0.000494089
-0.000360383
-0.000382234
-0.000484104
-0.000238279
-0.00057289
-8.96072e-05
-0.000562414
-0.000328324
-3.28502e-05
0.000182054
-9.3248e-05
0.000334261
-0.000161458
0.000378095
-0.000230307
0.000380585
-0.0002978
0.000369377
-0.000363391
0.000352102
-0.000426821
0.000329826
-0.000487793
0.000301853
-0.000545787
0.000266735
-0.000599821
0.000222336
-0.000648095
0.00016576
-0.000687452
9.33524e-05
-0.000713739
1.54673e-06
-0.000718385
-0.000116661
-0.000691491
-0.000261616
-0.000620815
-0.000431059
-0.000496144
-0.000608775
-0.000319229
-0.000749806
-0.000124289
-0.000757354
-0.000452614
-3.44554e-05
0.00021651
-9.84109e-05
0.000398216
-0.000170679
0.000450363
-0.000243682
0.000453587
-0.000315544
0.000441239
-0.000386037
0.000422595
-0.000455336
0.000399125
-0.00052369
0.000370208
-0.000591233
0.000334278
-0.00065771
0.000288813
-0.000722048
0.000230098
-0.000781679
0.000152983
-0.00083112
5.09879e-05
-0.000862409
-8.53721e-05
-0.000860215
-0.00026381
-0.000804931
-0.000486342
-0.000674836
-0.000738871
-0.00045883
-0.000965812
-0.000191194
-0.00102499
-0.000643808
-3.63489e-05
0.000252859
-0.000104381
0.000466248
-0.000181102
0.000527084
-0.000258433
0.000530918
-0.00033464
0.000517446
-0.000409878
0.000497834
-0.00048487
0.000474117
-0.000560595
0.000445933
-0.000638135
0.000411818
-0.000718423
0.000369101
-0.000801769
0.000313443
-0.00088699
0.000238205
-0.000969789
0.000133786
-0.00104282
-1.23418e-05
-0.00108712
-0.000219506
-0.00107495
-0.00049851
-0.000966077
-0.000847748
-0.000717483
-0.00121441
-0.000332828
-0.00140964
-0.000976637
-3.86516e-05
0.00029151
-0.000111372
0.000538968
-0.000192883
0.000608596
-0.0002745
0.000612535
-0.000354653
0.000597599
-0.000433937
0.000577119
-0.000513713
0.000553893
-0.000595852
0.000528072
-0.000682684
0.00049865
-0.000776876
0.000463293
-0.000881108
0.000417675
-0.000997301
0.000354398
-0.00112501
0.000261499
-0.00125858
0.000121221
-0.00138561
-9.24744e-05
-0.0014719
-0.000412219
-0.00144991
-0.000869741
-0.00120196
-0.00146235
-0.000627904
-0.0019837
-0.00160454
-4.16436e-05
0.000333154
-0.000119892
0.000617216
-0.000206517
0.000695221
-0.000292146
0.000698164
-0.000375415
0.000680868
-0.000457407
0.000659111
-0.000540157
0.000636644
-0.000626484
0.000614398
-0.00072013
0.000592296
-0.000825962
0.000569125
-0.000950063
0.000541776
-0.00109947
0.000503808
-0.00128137
0.000443396
-0.00150085
0.000340699
-0.00175891
0.000165591
-0.00203118
-0.00013995
-0.00219984
-0.00070108
-0.00198701
-0.00167519
-0.00111529
-0.00285541
-0.00271983
-4.58855e-05
0.000379039
-0.000130937
0.000702267
-0.000223045
0.00078733
-0.000312161
0.000787279
-0.000397246
0.000765953
-0.000479916
0.000741781
-0.000562843
0.000719571
-0.000649678
0.000701233
-0.000745471
0.000688088
-0.000857343
0.000680998
-0.000995406
0.000679838
-0.00117396
0.000682361
-0.00141277
0.000682204
-0.00173771
0.000665648
-0.00217181
0.000599689
-0.00268804
0.000376279
-0.00308221
-0.000306914
-0.00284074
-0.00191666
-0.00161944
-0.00407671
-0.00433927
-5.23812e-05
0.000431421
-0.000146214
0.0007961
-0.000244292
0.000885407
-0.000336167
0.000879154
-0.000421273
0.00085106
-0.000501866
0.000822374
-0.00058119
0.000798895
-0.000663305
0.000783348
-0.000753925
0.000778708
-0.000861656
0.000788729
-0.000999906
0.000818088
-0.00118997
0.00087242
-0.00146526
0.000957498
-0.00187153
0.00107192
-0.00244506
0.00117322
-0.00311002
0.00104125
-0.00353863
0.000121694
-0.00319318
-0.00226211
-0.00187982
-0.00539006
-0.0062191
-6.3795e-05
0.000495216
-0.000169587
0.000901892
-0.00027338
0.0009892
-0.000365944
0.000971719
-0.000448591
0.000933707
-0.000524279
0.000898061
-0.000595996
0.000870612
-0.000667549
0.000854902
-0.000744312
0.000855471
-0.000834601
0.000879018
-0.000952206
0.000935693
-0.00112003
0.00104024
-0.00137456
0.00121203
-0.00175709
0.00145445
-0.00228135
0.00169748
-0.00282984
0.00158974
-0.00313561
0.000427465
-0.00283663
-0.0025611
-0.00184922
-0.00637747
-0.00806832
-7.76555e-05
0.000572871
-0.000198901
0.00102314
-0.000311683
0.00110198
-0.000407848
0.00106788
-0.00048722
0.00101308
-0.000554152
0.000964994
-0.000612543
0.000929003
-0.000665732
0.00090809
-0.000717055
0.000906794
-0.000771176
0.000933138
-0.000836611
0.00100113
-0.000926759
0.00113039
-0.00106496
0.00135022
-0.00126721
0.0016567
-0.00153985
0.00197013
-0.00178141
0.0018313
-0.00194068
0.000586729
-0.00191677
-0.002585
-0.00145062
-0.00684362
-0.00951894
-0.000144175
0.000717046
-0.00027958
0.00115854
-0.000381431
0.00120383
-0.000458691
0.00114514
-0.000522507
0.00107689
-0.000576704
0.00101919
-0.000621851
0.00097415
-0.000656944
0.000943183
-0.000680726
0.000930576
-0.000690904
0.000943317
-0.000685459
0.000995683
-0.000661295
0.00110623
-0.000618617
0.00130755
-0.000542583
0.00158066
-0.000442957
0.0018705
-0.00035003
0.00173837
-0.000347945
0.000584643
-0.000665422
-0.00226753
-0.000752107
-0.00675694
-0.010271
-9.472e-05
0.000811766
-0.000293782
0.0013576
-0.000439036
0.00134909
-0.000538324
0.00124443
-0.000603434
0.001142
-0.000644172
0.00105993
-0.000665224
0.000995202
-0.000667363
0.000945322
-0.000648368
0.000911582
-0.000600216
0.000895164
-0.000511975
0.000907443
-0.000363094
0.000957346
-0.000129027
0.00107348
0.000207144
0.00124449
0.000649579
0.00142807
0.00105949
0.00132846
0.00115714
0.000486996
0.000579377
-0.00168977
6.07457e-05
-0.00623831
-0.0102103
-0.000388028
0.00119979
-0.000473093
0.00144267
-0.00055698
0.00143297
-0.000633196
0.00132065
-0.000664705
0.00117351
-0.000658328
0.00105355
-0.00062117
0.000958044
-0.000554103
0.000878256
-0.000460063
0.000817542
-0.000331758
0.000766859
-0.000161956
0.000737641
6.88908e-05
0.000726499
0.000386902
0.000755467
0.000817492
0.000813901
0.00136785
0.000877711
0.00189083
0.000805474
0.00225289
0.000124939
0.00192056
-0.00135743
0.00101064
-0.00532839
-0.00919966
-0.00135387
0.00255367
-0.00131869
0.00140749
-0.00107379
0.00118807
-0.000719479
0.000966338
-0.000342716
0.00079675
3.72905e-05
0.000673544
0.00040741
0.000587924
0.000765436
0.00052023
0.00111175
0.000471228
0.00144912
0.000429492
0.00178629
0.000400466
0.00213117
0.000381623
0.00251569
0.000370951
0.0029554
0.000374182
0.00350503
0.000328088
0.00408072
0.000229783
0.0044206
-0.000214945
0.00427558
-0.00121241
0.0026676
-0.00372041
-0.00653206
0.00255367
0.00396116
0.00514923
0.00611556
0.00691231
0.00758586
0.00817378
0.00869401
0.00916524
0.00959473
0.0099952
0.0103768
0.0107478
0.011122
0.01145
0.0116798
0.0114649
0.0102525
0.00653206
)
;

boundaryField
{
    movingWall
    {
        type            calculated;
        value           uniform 0;
    }
    fixedWalls
    {
        type            calculated;
        value           uniform 0;
    }
    frontAndBack
    {
        type            empty;
        value           nonuniform List<scalar> 0();
    }
}


// ************************************************************************* //
