/*--------------------------------*- C++ -*----------------------------------*\
  =========                 |
  \\      /  F ield         | OpenFOAM: The Open Source CFD Toolbox
   \\    /   O peration     | Website:  https://openfoam.org
    \\  /    A nd           | Version:  10
     \\/     M anipulation  |
\*---------------------------------------------------------------------------*/
FoamFile
{
    format      ascii;
    class       volScalarField;
    location    "9.975";
    object      p;
}
// * * * * * * * * * * * * * * * * * * * * * * * * * * * * * * * * * * * * * //

dimensions      [0 2 -2 0 0 0 0];

internalField   nonuniform List<scalar> 
8000
(
-3.08201e-06
-1.44445e-05
3.86061e-05
0.000137807
0.000290551
0.000499781
0.000769453
0.00110402
0.00150738
0.00198155
0.00252491
0.00312979
0.0037796
0.00444626
0.00508908
0.00565794
0.00610002
0.00638085
0.00651082
0.00646479
-2.03192e-06
-9.97533e-06
4.75789e-05
0.000147925
0.000299822
0.000506624
0.000772554
0.00110222
0.00149969
0.00196735
0.00250419
0.00310348
0.00374965
0.00441475
0.00505802
0.00562843
0.00607163
0.00634755
0.00646984
0.0063955
-9.07852e-05
-0.000102316
-4.69089e-05
4.83778e-05
0.000192915
0.000390161
0.000644736
0.000961961
0.00134708
0.00180424
0.00233477
0.00293475
0.00359146
0.00427987
0.00495797
0.0055674
0.00604061
0.00632394
0.00643371
0.00632357
-0.000255969
-0.000270427
-0.00021965
-0.000133135
-1.04358e-06
0.000180208
0.000415751
0.000711858
0.00107541
0.00151317
0.00203032
0.00262775
0.00329799
0.00401922
0.00474871
0.00541777
0.0059467
0.0062494
0.00634236
0.00617006
-0.000507029
-0.000524542
-0.000481435
-0.000408063
-0.000294307
-0.000136543
7.07622e-05
0.000334771
0.000664066
0.00106841
0.00155773
0.00213963
0.00281468
0.00356908
0.00436406
0.00512806
0.0057381
0.00608347
0.00616407
0.00590823
-0.000843666
-0.000864525
-0.000832008
-0.000776304
-0.00068735
-0.000561824
-0.000394312
-0.000177365
9.86383e-05
0.000445786
0.000878507
0.00141218
0.00205876
0.00281848
0.00366558
0.0045257
0.00526608
0.00569217
0.00579697
0.00541769
-0.00126172
-0.00128634
-0.00126714
-0.00123369
-0.00117649
-0.00109314
-0.000979334
-0.000828798
-0.000632804
-0.000379199
-5.17945e-05
0.000369737
0.000908369
0.00158261
0.00239323
0.00330073
0.00418761
0.00481744
0.00506731
0.0045943
-0.00175432
-0.00178312
-0.00177954
-0.00177252
-0.00175383
-0.00172294
-0.00167813
-0.00161645
-0.00153335
-0.00142167
-0.00127025
-0.00106245
-0.000774475
-0.000374676
0.000174133
0.000913607
0.00186272
0.00287961
0.003639
0.00335392
-0.00231246
-0.00234562
-0.00235889
-0.00238116
-0.00240621
-0.00243663
-0.00247508
-0.00252478
-0.00258971
-0.00267439
-0.00278392
-0.0029239
-0.00309634
-0.00328264
-0.00340714
-0.00323562
-0.0023552
-0.000639665
0.00125596
0.00176741
-0.00292571
-0.00296295
-0.00299241
-0.00304427
-0.00311485
-0.00321132
-0.0033425
-0.0035205
-0.00376251
-0.00409227
-0.00454313
-0.00516328
-0.0060059
-0.00707985
-0.00825362
-0.00899697
-0.00829969
-0.0054386
-0.00199143
-0.000215109
-0.00358335
-0.00362392
-0.00366594
-0.00374368
-0.00385609
-0.00401645
-0.00424069
-0.00455147
-0.00498253
-0.00558139
-0.00641569
-0.00759019
-0.00920665
-0.0112519
-0.0134917
-0.0149257
-0.0139533
-0.00955847
-0.00497542
-0.00219844
-0.00427716
-0.00431866
-0.00436492
-0.00445881
-0.00460182
-0.00481452
-0.00511928
-0.00554812
-0.00615224
-0.00700011
-0.00817277
-0.00984861
-0.0121023
-0.0148488
-0.0175612
-0.0189641
-0.0174008
-0.0118579
-0.00725868
-0.00338314
-0.00500593
-0.00504368
-0.00508067
-0.00517395
-0.00532789
-0.00557101
-0.00593022
-0.00643913
-0.00717089
-0.00819523
-0.00962786
-0.0116252
-0.0142507
-0.0173229
-0.020138
-0.0215492
-0.0202612
-0.0152748
-0.0103221
-0.00441617
-0.00577625
-0.00579673
-0.00579934
-0.00586404
-0.00600104
-0.00624604
-0.00661843
-0.00717552
-0.00797003
-0.00908558
-0.010638
-0.0127697
-0.0155392
-0.0187302
-0.021737
-0.0238279
-0.0244328
-0.020193
-0.0144296
-0.0056094
-0.00661564
-0.00661346
-0.00655634
-0.00656551
-0.00664816
-0.00684891
-0.00719606
-0.0077379
-0.0085282
-0.0096437
-0.0111924
-0.0132875
-0.0159916
-0.0191176
-0.0223113
-0.0248405
-0.026644
-0.022355
-0.0168868
-0.00531092
-0.00771281
-0.00747691
-0.00726804
-0.0071231
-0.00710997
-0.00725002
-0.00755584
-0.0080633
-0.00881467
-0.00986849
-0.0113182
-0.0132389
-0.0156847
-0.0184597
-0.0213594
-0.0233161
-0.0250229
-0.0203193
-0.0161302
-0.000844039
-0.00856708
-0.00863959
-0.00826311
-0.00806617
-0.0078953
-0.00787367
-0.00802585
-0.00838934
-0.00901067
-0.00992674
-0.0112156
-0.0129085
-0.0150522
-0.0173721
-0.0198211
-0.0210156
-0.0221713
-0.0161433
-0.0118042
0.0107644
-0.0124507
-0.00958083
-0.00884939
-0.00802951
-0.00768453
-0.0076037
-0.00776841
-0.0081403
-0.00875224
-0.00961246
-0.0108061
-0.0123096
-0.0141984
-0.0160876
-0.0179959
-0.0184868
-0.0185086
-0.0102458
-0.00266913
0.0340484
-0.0119372
-0.0127953
-0.0111927
-0.0105565
-0.00969354
-0.00913185
-0.00885118
-0.00885346
-0.00918548
-0.00981444
-0.0108421
-0.0121737
-0.0139699
-0.0157264
-0.0176022
-0.0173807
-0.0159784
-0.00308646
0.0138995
0.0772337
-0.0367291
-0.0112469
-0.00942394
-0.00780404
-0.00692181
-0.00670657
-0.00689772
-0.00727161
-0.00791502
-0.00873329
-0.00994379
-0.0112765
-0.0129986
-0.0141609
-0.0148662
-0.0113724
-0.00295266
0.0247504
0.0712489
0.176953
1.22623e-06
-2.19178e-05
2.8927e-05
0.000126638
0.000279162
0.000488716
0.000759078
0.00109487
0.00150032
0.00197794
0.00252671
0.0031396
0.00380049
0.00448118
0.00513984
0.00572295
0.00617319
0.0064512
0.00657025
0.00649838
1.89519e-05
-2.26916e-06
5.55879e-05
0.0001559
0.000308209
0.00051534
0.0007814
0.00111102
0.00150839
0.00197612
0.00251364
0.00311492
0.00376512
0.0044363
0.00508809
0.00566797
0.00611517
0.00638686
0.00650131
0.00640677
-6.31032e-05
-9.12687e-05
-3.54147e-05
5.9948e-05
0.000205008
0.000402605
0.000657199
0.000974096
0.00135859
0.00181508
0.00234548
0.00294673
0.00360711
0.00430256
0.00499112
0.00561245
0.00609151
0.00636926
0.00646701
0.00632909
-0.000223698
-0.000256541
-0.000205131
-0.000118403
1.43942e-05
0.000196172
0.000431874
0.000727718
0.00109059
0.00152749
0.00204426
0.00264297
0.00331766
0.00404768
0.00478987
0.00547851
0.00601615
0.00631192
0.00638471
0.00617579
-0.000472744
-0.000509627
-0.000465871
-0.000392208
-0.000277516
-0.000118859
8.90996e-05
0.000353456
0.000682785
0.00108706
0.00157692
0.00216141
0.00284328
0.00360967
0.00441543
0.00520835
0.00584428
0.00618488
0.0062307
0.00591102
-0.000809027
-0.000849836
-0.000816765
-0.000760719
-0.000670563
-0.000543641
-0.000374718
-0.000156405
0.00012089
0.000469435
0.000904282
0.00144232
0.0020984
0.00287706
0.00375952
0.00464429
0.00542632
0.00587762
0.00592896
0.0054331
-0.00122768
-0.00127268
-0.00125311
-0.00121933
-0.00116071
-0.00107547
-0.000959431
-0.000806375
-0.000607617
-0.000351031
-2.02745e-05
0.000405704
0.000951772
0.00164103
0.00248121
0.00343839
0.00442069
0.00517101
0.0053699
0.00466478
-0.00172152
-0.00177116
-0.00176752
-0.00176032
-0.00174015
-0.00170702
-0.00165931
-0.00159411
-0.00150707
-0.00139153
-0.0012374
-0.00103038
-0.00075135
-0.000374351
0.000153306
0.000972923
0.00223247
0.00371864
0.00439018
0.00364784
-0.00228135
-0.00233601
-0.00234972
-0.00237218
-0.00239593
-0.00242403
-0.00245925
-0.00250489
-0.00256547
-0.00264724
-0.0027595
-0.00291844
-0.00314934
-0.0034617
-0.00374741
-0.00348726
-0.00187378
0.00099784
0.00267717
0.00279745
-0.00289659
-0.00295634
-0.00298687
-0.00303947
-0.00310922
-0.00320366
-0.0033317
-0.00350571
-0.00374405
-0.00407427
-0.00453952
-0.00521152
-0.00620151
-0.00757718
-0.00913681
-0.00988745
-0.00819648
-0.00398844
-0.000483622
0.00183014
-0.00355677
-0.00362107
-0.00366495
-0.00374409
-0.00385641
-0.00401524
-0.00423673
-0.00454414
-0.00497281
-0.00557714
-0.00644341
-0.00771089
-0.00957862
-0.0121457
-0.0150741
-0.0170649
-0.0159484
-0.0105669
-0.0050498
-0.000172554
-0.00425266
-0.00431968
-0.00436831
-0.00446414
-0.00460794
-0.00481967
-0.00512215
-0.00554858
-0.00615004
-0.00700364
-0.00822858
-0.0100094
-0.0125888
-0.016006
-0.0198579
-0.0227352
-0.0223747
-0.0162844
-0.0100354
-0.0033197
-0.00498217
-0.00504984
-0.00509028
-0.00518656
-0.00534193
-0.00558366
-0.00593973
-0.00645
-0.00717587
-0.00820572
-0.00967309
-0.0117762
-0.0147534
-0.0185904
-0.0229199
-0.0264658
-0.0272741
-0.0217098
-0.0157203
-0.00728496
-0.00574587
-0.00580191
-0.00580608
-0.00587399
-0.00601384
-0.00625768
-0.00663344
-0.00718397
-0.00797087
-0.00908672
-0.0106426
-0.0128731
-0.0159532
-0.0198677
-0.0244277
-0.0285731
-0.0309636
-0.026528
-0.0211989
-0.0109216
-0.00657205
-0.00662581
-0.00657147
-0.00658746
-0.00667248
-0.00687136
-0.00721539
-0.007746
-0.00851813
-0.00961931
-0.0111622
-0.0133075
-0.0162279
-0.0198928
-0.0242729
-0.0281748
-0.0313803
-0.0269159
-0.0237346
-0.0114802
-0.00760987
-0.00743613
-0.00723645
-0.00710122
-0.00709989
-0.00724612
-0.007555
-0.00805147
-0.00878104
-0.00981066
-0.0112391
-0.0131641
-0.015719
-0.0187959
-0.0224003
-0.0252233
-0.0277884
-0.0232843
-0.023069
-0.00635521
-0.00829281
-0.00858444
-0.00820952
-0.00806234
-0.00790076
-0.00788293
-0.00802926
-0.00837501
-0.00896528
-0.00984556
-0.0110976
-0.0127652
-0.0149472
-0.0174241
-0.0202858
-0.0220768
-0.0237507
-0.0189945
-0.0189985
0.00778779
-0.0119943
-0.0092897
-0.00859292
-0.00780096
-0.00753216
-0.00751033
-0.00770703
-0.00808109
-0.00867517
-0.00949713
-0.0106518
-0.0121271
-0.0140499
-0.0160936
-0.0183504
-0.0192805
-0.0196619
-0.013327
-0.00764509
0.0350702
-0.00933333
-0.0118748
-0.0106194
-0.0103342
-0.00963387
-0.00916868
-0.00892263
-0.00891217
-0.00920546
-0.00976807
-0.0107328
-0.0120092
-0.0138458
-0.0157742
-0.0181208
-0.0186764
-0.0177337
-0.00569443
0.0140362
0.0855
-0.0345234
-0.00938199
-0.00780077
-0.00673967
-0.00621975
-0.0061754
-0.00647685
-0.00689836
-0.00757023
-0.00836738
-0.00956692
-0.0108982
-0.0126704
-0.0140256
-0.0149438
-0.0119235
-0.00322274
0.0269617
0.0850495
0.207338
2.37095e-05
-5.70672e-06
4.45952e-05
0.000142419
0.000296313
0.000508279
0.00078229
0.00112344
0.00153664
0.00202527
0.00258922
0.00322229
0.00390866
0.00461936
0.00530893
0.00591844
0.00638224
0.00665496
0.00675399
0.0066523
5.27164e-05
2.36994e-05
8.23778e-05
0.000183361
0.00033709
0.000546262
0.000815236
0.0011491
0.00155265
0.00202934
0.00257963
0.00319848
0.00387148
0.00457033
0.00525343
0.00586012
0.00632117
0.00658656
0.00667934
0.00655559
-2.13916e-05
-5.94747e-05
-2.49666e-06
9.35958e-05
0.000240047
0.00043954
0.000696839
0.00101777
0.00140836
0.00187412
0.00241837
0.00303966
0.00372773
0.00445919
0.00518909
0.00584806
0.00634798
0.00661617
0.00667858
0.00649738
-0.000175081
-0.000219179
-0.000166366
-7.88171e-05
5.54501e-05
0.000239201
0.000477739
0.000777898
0.00114749
0.00159494
0.00212815
0.0027518
0.00346245
0.00424062
0.00504444
0.00579286
0.00636771
0.00664973
0.00665694
0.00637675
-0.000419276
-0.000468282
-0.000422955
-0.000348364
-0.000231982
-7.09837e-05
0.000140415
0.000410058
0.000747687
0.00116513
0.0016759
0.00229321
0.00302436
0.00386045
0.0047652
0.00565212
0.006358
0.00667876
0.00659858
0.00615164
-0.000752255
-0.000805796
-0.000771053
-0.000713952
-0.000621803
-0.000491996
-0.000318749
-9.37813e-05
0.000193909
0.000558925
0.00102008
0.00160011
0.00232218
0.00319848
0.00420999
0.00527332
0.00619538
0.00662226
0.0064316
0.00570226
-0.00116861
-0.00122683
-0.00120556
-0.00117066
-0.00110981
-0.00102122
-0.000900081
-0.000739183
-0.000528277
-0.000252643
0.000108385
0.000583002
0.0012075
0.00201986
0.00304374
0.00427546
0.00553073
0.00623161
0.00599983
0.00492847
-0.00166078
-0.00172411
-0.00171888
-0.00171068
-0.00168832
-0.00165174
-0.00159867
-0.00152528
-0.00142588
-0.00129161
-0.00110873
-0.00085762
-0.000511875
-2.60288e-05
0.0007066
0.00186977
0.00348409
0.00485822
0.00500208
0.00394404
-0.00221928
-0.00228811
-0.00230052
-0.0023224
-0.00234444
-0.00236961
-0.00240014
-0.00243876
-0.00248951
-0.00255843
-0.00265578
-0.00280394
-0.0030467
-0.00340399
-0.00368715
-0.00322767
-0.00140482
0.00145537
0.00307962
0.00326854
-0.00283308
-0.00290749
-0.00293724
-0.00299
-0.00305905
-0.00315182
-0.00327696
-0.00344698
-0.00368145
-0.004012
-0.00449262
-0.0052247
-0.00639356
-0.00812632
-0.0101513
-0.0110843
-0.00916653
-0.00429853
-0.000319023
0.00238128
-0.00349088
-0.00357064
-0.00361451
-0.00369491
-0.00380802
-0.00396705
-0.00418831
-0.00449615
-0.00492944
-0.00555255
-0.00647642
-0.00789685
-0.0101472
-0.0133917
-0.0171958
-0.0195807
-0.0179354
-0.011717
-0.00567023
-0.000354582
-0.00418212
-0.00426549
-0.00431477
-0.00441306
-0.00455952
-0.00477369
-0.00507884
-0.00551005
-0.00612327
-0.00700997
-0.00832616
-0.0103324
-0.0134123
-0.0176865
-0.0226031
-0.0259523
-0.0253106
-0.0190751
-0.0123081
-0.00499691
-0.00490339
-0.00498947
-0.00503161
-0.00513189
-0.00529175
-0.00553767
-0.00589822
-0.00641557
-0.00715548
-0.00822197
-0.00979127
-0.0121342
-0.0156172
-0.0202964
-0.0256846
-0.0297199
-0.0305364
-0.0251966
-0.0186774
-0.0100644
-0.00564972
-0.00572556
-0.00573119
-0.00580438
-0.00595105
-0.00620127
-0.00658333
-0.00714041
-0.00793917
-0.00908118
-0.0107366
-0.013149
-0.0166433
-0.0212054
-0.0265816
-0.0308871
-0.032877
-0.0282021
-0.0227725
-0.0133067
-0.00644983
-0.00652893
-0.00647537
-0.00649936
-0.0065929
-0.00679939
-0.00714863
-0.00768306
-0.00846382
-0.00957695
-0.0111652
-0.0134388
-0.016634
-0.0206888
-0.0254716
-0.0291418
-0.0314917
-0.0266579
-0.0234807
-0.0127313
-0.00743114
-0.00728759
-0.00708747
-0.00696141
-0.00697259
-0.0071304
-0.00744716
-0.00794653
-0.00867822
-0.00969648
-0.0111385
-0.0131273
-0.015821
-0.0190858
-0.0228243
-0.0253221
-0.0269467
-0.0222399
-0.0213044
-0.00666552
-0.0079833
-0.00833369
-0.00796798
-0.00784935
-0.00770777
-0.00770677
-0.00786231
-0.0082095
-0.00879451
-0.00965382
-0.0108931
-0.0125713
-0.0148138
-0.0173871
-0.0203023
-0.0218652
-0.0227211
-0.0178837
-0.0158754
0.00792354
-0.0116684
-0.00898168
-0.00822512
-0.00742942
-0.00719237
-0.0072054
-0.00742559
-0.00781228
-0.00839987
-0.00919983
-0.0103267
-0.0117899
-0.0137243
-0.0158306
-0.018085
-0.0189
-0.0185522
-0.0121929
-0.00410325
0.036106
-0.00826739
-0.0110635
-0.00990356
-0.0097262
-0.00910443
-0.00870898
-0.00850144
-0.00851767
-0.00880771
-0.00935548
-0.0102827
-0.0115535
-0.0133976
-0.015434
-0.0178725
-0.0184662
-0.0173265
-0.00500484
0.0169767
0.0882575
-0.0337834
-0.00849641
-0.00689577
-0.00597068
-0.0055723
-0.00559346
-0.00592363
-0.00636289
-0.00702309
-0.00780426
-0.00896411
-0.010304
-0.01209
-0.0135775
-0.0145765
-0.0115922
-0.00217322
0.0290726
0.090704
0.214636
5.17654e-05
1.83839e-05
6.86449e-05
0.000167193
0.000323193
0.000538601
0.000817678
0.00116606
0.00158943
0.00209207
0.00267486
0.00333236
0.00404882
0.00479391
0.00551847
0.00615676
0.00663453
0.00690108
0.00697944
0.00685207
8.72617e-05
5.35804e-05
0.000113026
0.000215071
0.000370904
0.000583202
0.000856647
0.00119685
0.00160932
0.00209845
0.00266575
0.00330713
0.00400818
0.00474096
0.00545894
0.00609496
0.00656989
0.00682728
0.00689692
0.0067491
1.89695e-05
-2.49555e-05
3.30093e-05
0.000130214
0.000278764
0.000481311
0.000742983
0.00107019
0.00146983
0.00194853
0.00251108
0.00315747
0.00387881
0.00465155
0.00542577
0.00612333
0.00664152
0.00689624
0.00692193
0.006706
-0.000129172
-0.000179937
-0.000125933
-3.71903e-05
9.92634e-05
0.000286172
0.000529262
0.000836058
0.00121539
0.00167718
0.00223135
0.00288489
0.00363629
0.00446797
0.00533272
0.00613683
0.0067386
0.0069958
0.00693956
0.00660452
-0.0003691
-0.00042536
-0.000378709
-0.000302826
-0.000184063
-1.95833e-05
0.000196902
0.000474052
0.000822857
0.00125703
0.00179281
0.002447
0.00323072
0.00413749
0.00512955
0.00609859
0.00684492
0.00711694
0.00692983
0.00639236
-0.000698916
-0.00076017
-0.000724024
-0.000665535
-0.000570772
-0.000437072
-0.000258073
-2.45581e-05
0.000275918
0.000660204
0.00115054
0.00177474
0.00256119
0.00352218
0.00465529
0.00584542
0.00682728
0.00715308
0.00679956
0.0059238
-0.0011129
-0.00117925
-0.00115659
-0.00112028
-0.00105671
-0.000963968
-0.000836661
-0.00066661
-0.000442071
-0.000145985
0.00024601
0.00076776
0.00146329
0.00238219
0.00354606
0.00494338
0.00627037
0.00679914
0.00636962
0.00509591
-0.00160321
-0.00167513
-0.00166862
-0.00165922
-0.00163429
-0.00159374
-0.00153473
-0.00145267
-0.00134073
-0.00118839
-0.000979583
-0.00069243
-0.00029812
0.000258407
0.00110503
0.00243702
0.00417998
0.00542959
0.00538745
0.00412822
-0.00215999
-0.00223795
-0.00224941
-0.00227055
-0.00229064
-0.00231265
-0.00233846
-0.0023705
-0.00241271
-0.00247158
-0.00255962
-0.00270837
-0.00298133
-0.00339255
-0.00363998
-0.00299397
-0.000953652
0.00184695
0.00342466
0.00361422
-0.00277178
-0.00285594
-0.00288523
-0.00293803
-0.0030062
-0.00309729
-0.00321994
-0.00338717
-0.00362023
-0.00395508
-0.00445628
-0.00525222
-0.00657877
-0.00854852
-0.0107022
-0.0113897
-0.0093766
-0.00472652
-0.000366117
0.00280277
-0.00342659
-0.00351685
-0.00356095
-0.00364242
-0.00375608
-0.00391534
-0.00413693
-0.00444665
-0.00488705
-0.00553136
-0.00650987
-0.00806019
-0.0105762
-0.0141875
-0.0182597
-0.0206023
-0.0192352
-0.0133662
-0.00666938
-0.000560692
-0.00411255
-0.00420719
-0.00425735
-0.00435781
-0.00450641
-0.00472277
-0.0050308
-0.00546753
-0.0060936
-0.00701189
-0.00840165
-0.0105669
-0.0139547
-0.018647
-0.0239356
-0.0274757
-0.0272325
-0.0215387
-0.0144096
-0.00633711
-0.0048249
-0.00492364
-0.00496746
-0.00507115
-0.00523457
-0.00548401
-0.00584869
-0.00637256
-0.00712554
-0.00822296
-0.00986177
-0.0123497
-0.0161164
-0.0211667
-0.0269312
-0.031077
-0.0320809
-0.0272658
-0.0208801
-0.0119608
-0.00555447
-0.00564429
-0.00565181
-0.00572953
-0.00588125
-0.00613621
-0.00652289
-0.00708494
-0.0078921
-0.00905439
-0.0107586
-0.0132704
-0.0169637
-0.0217446
-0.0273283
-0.0313467
-0.0332161
-0.0289009
-0.024226
-0.0148983
-0.00632965
-0.00642594
-0.00637423
-0.00640489
-0.00650469
-0.00671637
-0.00706908
-0.0076048
-0.00838586
-0.00950374
-0.0111198
-0.0134189
-0.0167204
-0.0208433
-0.0255704
-0.0288301
-0.0307219
-0.0263616
-0.0241874
-0.0136677
-0.00726303
-0.00714048
-0.00694251
-0.00682539
-0.00684529
-0.00701051
-0.00733146
-0.00782994
-0.00855284
-0.00956471
-0.010997
-0.0129854
-0.0157136
-0.0189751
-0.0226082
-0.0247634
-0.0260594
-0.0217729
-0.0217102
-0.00693876
-0.00773491
-0.00812638
-0.00776123
-0.0076632
-0.00753471
-0.00754387
-0.00770346
-0.00804754
-0.0086199
-0.00945558
-0.0106721
-0.0123327
-0.0145765
-0.0171462
-0.0200049
-0.0214062
-0.0221276
-0.0177371
-0.0165545
0.00843468
-0.0113475
-0.0086957
-0.00792342
-0.00714413
-0.00692439
-0.00695617
-0.00718796
-0.00757715
-0.00815572
-0.00892606
-0.0100264
-0.0114645
-0.0133864
-0.0154893
-0.0177326
-0.0184947
-0.0181674
-0.0123337
-0.0048318
0.0374887
-0.00767545
-0.0106334
-0.00948944
-0.00937315
-0.00878077
-0.00840985
-0.00821679
-0.00823083
-0.00850641
-0.00902815
-0.00992407
-0.011173
-0.0130187
-0.0150928
-0.0176197
-0.0183378
-0.0174426
-0.00528305
0.0166637
0.0910203
-0.0332051
-0.00789671
-0.00629575
-0.00543503
-0.00509963
-0.00516578
-0.00552215
-0.00597193
-0.00662766
-0.00738999
-0.00852857
-0.00985098
-0.0116485
-0.0131649
-0.0142167
-0.0112081
-0.00173945
0.029907
0.0922855
0.220101
8.25791e-05
4.77119e-05
9.87017e-05
0.000198766
0.000357602
0.000577316
0.000862567
0.00121958
0.00165482
0.00217348
0.0027773
0.00346145
0.00420999
0.00499101
0.00575107
0.00641772
0.00690845
0.00716831
0.00722688
0.00707763
0.00012124
8.55251e-05
0.000145988
0.000249652
0.000408289
0.000624712
0.000903996
0.00125232
0.00167596
0.00218019
0.00276751
0.00343455
0.00416636
0.00493536
0.0056893
0.00635418
0.0068415
0.00708979
0.00713676
0.00696915
5.68036e-05
1.029e-05
6.94066e-05
0.000168277
0.000319666
0.000526358
0.000793917
0.0011294
0.00154055
0.00203514
0.00261921
0.00329389
0.0040515
0.00486663
0.00568456
0.00641782
0.0069501
0.00718879
0.00717959
0.00693597
-8.7262e-05
-0.000141028
-8.57349e-05
4.75312e-06
0.000144157
0.000335364
0.000584602
0.000900134
0.00129182
0.00177101
0.00234941
0.00303566
0.00382895
0.00471394
0.00563478
0.00648515
0.00710211
0.00732873
0.0072167
0.00684056
-0.000323694
-0.000383256
-0.000335211
-0.000257488
-0.000135595
3.34842e-05
0.00025661
0.000543304
0.000905792
0.00135953
0.00192308
0.00261589
0.00345117
0.00442291
0.00548678
0.00651511
0.00727382
0.00748879
0.00721664
0.00661732
-0.000650643
-0.000715444
-0.000677842
-0.000617436
-0.000519368
-0.000380769
-0.000194636
4.91995e-05
0.000364562
0.000770269
0.00129124
0.00195872
0.00280471
0.00384212
0.00505679
0.00631776
0.00730072
0.00752406
0.00706411
0.00609303
-0.00106229
-0.00113243
-0.00110832
-0.00107013
-0.00100322
-0.000905505
-0.000770938
-0.000590414
-0.000350873
-3.34669e-05
0.000388534
0.000951879
0.0017018
0.00268251
0.00392981
0.00539445
0.00670646
0.00709775
0.00657324
0.00516568
-0.0015506
-0.00162657
-0.00161877
-0.00160769
-0.00157972
-0.00153457
-0.0014689
-0.00137742
-0.00125253
-0.00108283
-0.000852119
-0.000540963
-0.000126571
0.000444762
0.00131288
0.0026734
0.00436842
0.0055113
0.00548471
0.00413831
-0.00210543
-0.00218775
-0.00219822
-0.00221817
-0.00223589
-0.0022543
-0.00227502
-0.00230033
-0.00233447
-0.00238533
-0.00247014
-0.0026337
-0.00296184
-0.00346087
-0.00375286
-0.00320792
-0.00131065
0.00146979
0.00332579
0.00369132
-0.00271486
-0.00280372
-0.00283247
-0.00288483
-0.00295171
-0.00304078
-0.0031608
-0.00332546
-0.00355792
-0.00389905
-0.00442511
-0.0052902
-0.00676581
-0.00895624
-0.0113661
-0.0122003
-0.0103972
-0.00574971
-0.000860986
0.00277649
-0.00336623
-0.00346161
-0.00350575
-0.00358769
-0.00370137
-0.00386048
-0.00408223
-0.00439387
-0.00484137
-0.00550578
-0.0065338
-0.00819348
-0.0109105
-0.0147916
-0.0191475
-0.0216816
-0.020673
-0.0150523
-0.00780122
-0.00109811
-0.00404661
-0.00414672
-0.00419748
-0.00429936
-0.00444929
-0.00466714
-0.00497749
-0.00541906
-0.00605626
-0.00700023
-0.00844602
-0.0107228
-0.0143056
-0.0192282
-0.0247294
-0.0283461
-0.028464
-0.0232065
-0.0158649
-0.00739502
-0.00475005
-0.00485485
-0.00489984
-0.00500585
-0.00517163
-0.00542355
-0.00579132
-0.00632024
-0.00708327
-0.00820249
-0.00988676
-0.0124645
-0.0163715
-0.0215517
-0.0273859
-0.0313232
-0.0323628
-0.0278679
-0.0217132
-0.0128927
-0.0054649
-0.00556132
-0.00557035
-0.0056512
-0.00580612
-0.00606404
-0.00645349
-0.00701862
-0.00783087
-0.00900458
-0.0107337
-0.013295
-0.0170525
-0.0218276
-0.0273215
-0.0308029
-0.0324596
-0.0283301
-0.0241431
-0.0153008
-0.00621942
-0.00632337
-0.00627299
-0.00630791
-0.0064115
-0.00662614
-0.00698038
-0.0075159
-0.00829542
-0.00941262
-0.01103
-0.0133363
-0.0166467
-0.0207002
-0.0251881
-0.0279537
-0.0293359
-0.0252251
-0.0233884
-0.0136298
-0.00711712
-0.00700497
-0.00680922
-0.00669854
-0.00672326
-0.00689199
-0.00721389
-0.00770974
-0.00842606
-0.00943144
-0.0108393
-0.0128162
-0.0155289
-0.018718
-0.0221753
-0.0239562
-0.0248592
-0.0207257
-0.0206697
-0.00673818
-0.00754981
-0.00795797
-0.00758914
-0.00750185
-0.00737976
-0.00739366
-0.00755368
-0.00789287
-0.0084536
-0.00927244
-0.0104649
-0.0121031
-0.0143279
-0.0168527
-0.0196105
-0.0208326
-0.0213085
-0.0170649
-0.0156364
0.00889648
-0.0110916
-0.0084687
-0.00769597
-0.00693286
-0.00672037
-0.00675949
-0.00699381
-0.00737938
-0.00794601
-0.00869695
-0.00977327
-0.0111865
-0.0130881
-0.0151624
-0.0173429
-0.0180095
-0.0175149
-0.0118709
-0.00408178
0.0383326
-0.00739164
-0.0103925
-0.00923876
-0.00914337
-0.00855688
-0.00819228
-0.00799989
-0.00800756
-0.0082698
-0.00877009
-0.00964313
-0.01087
-0.0127058
-0.0147718
-0.0172918
-0.0179658
-0.0169891
-0.0049131
0.0173631
0.0924968
-0.0328961
-0.00758672
-0.00597849
-0.00513047
-0.00481496
-0.00489875
-0.00526498
-0.00571457
-0.00636165
-0.0071074
-0.00822616
-0.00953061
-0.0113144
-0.0128214
-0.0138457
-0.0107929
-0.00115324
0.0307014
0.0937097
0.222652
0.000112455
7.71906e-05
0.000129242
0.000231226
0.000393254
0.000617661
0.000909515
0.00127561
0.00172309
0.00225796
0.00288266
0.00359281
0.0043723
0.00518676
0.00597941
0.00667135
0.00717283
0.0074256
0.00746618
0.0072986
0.000152637
0.000116159
0.000177778
0.000283398
0.00044522
0.000666252
0.000951965
0.00130908
0.00174452
0.00226437
0.00287189
0.00356416
0.00432607
0.0051286
0.00591525
0.00660539
0.00710231
0.00734078
0.00736694
0.00718336
9.0667e-05
4.31666e-05
0.000103532
0.000204422
0.000359072
0.000570465
0.000844592
0.00118909
0.00161247
0.00212344
0.002729
0.00343111
0.00422273
0.00507628
0.00593245
0.00669509
0.00723644
0.00745779
0.00741712
0.00715264
-5.05785e-05
-0.000105507
-4.88673e-05
4.37293e-05
0.000186525
0.000382623
0.000638722
0.00096375
0.00136846
0.00186532
0.00246738
0.00318455
0.00401687
0.00494663
0.00591296
0.00679749
0.00741989
0.00761458
0.00745287
0.00704998
-0.000284376
-0.00034523
-0.000295754
-0.000215826
-9.03721e-05
8.38679e-05
0.000314283
0.000611141
0.000987679
0.00146069
0.00205042
0.00277746
0.00365408
0.0046796
0.00579668
0.0068623
0.00761608
0.00777477
0.00742975
0.00679709
-0.000609004
-0.000675206
-0.000636128
-0.000573455
-0.000471699
-0.000327725
-0.000133964
0.000120539
0.000450668
0.000876604
0.0014249
0.00212853
0.0030206
0.00411056
0.00537495
0.00666691
0.00762104
0.00775287
0.00721255
0.00619831
-0.00101865
-0.00109031
-0.00106475
-0.00102434
-0.000953783
-0.00085073
-0.000708612
-0.000517617
-0.000263816
7.25505e-05
0.000518948
0.00111228
0.00189537
0.00290466
0.00417669
0.00564075
0.00688783
0.0071844
0.00661347
0.00515638
-0.00150518
-0.00158281
-0.0015737
-0.00156063
-0.00152933
-0.00147933
-0.00140688
-0.00130632
-0.00116978
-0.000986205
-0.00074137
-0.000422078
-1.75416e-05
0.00051474
0.0013198
0.00260016
0.00421709
0.00536285
0.00539317
0.00406675
-0.00205823
-0.00214236
-0.00215179
-0.00217021
-0.00218529
-0.00219986
-0.00221546
-0.00223449
-0.00226207
-0.00230876
-0.00239863
-0.00259241
-0.00300287
-0.00364434
-0.00410108
-0.00376626
-0.0019911
0.000915837
0.00306655
0.00368924
-0.00266547
-0.00275632
-0.00278444
-0.00283592
-0.00290113
-0.00298785
-0.00310509
-0.00326741
-0.00350033
-0.00385047
-0.00440682
-0.00534888
-0.00698385
-0.00942521
-0.0121764
-0.0132851
-0.0116885
-0.00687909
-0.00146216
0.00266238
-0.00331372
-0.00341125
-0.00345525
-0.00353709
-0.00365024
-0.00380862
-0.00403002
-0.00434316
-0.00479746
-0.00548158
-0.00655765
-0.00832045
-0.011223
-0.0153563
-0.0200135
-0.022833
-0.022155
-0.0165672
-0.00885359
-0.00160787
-0.00398921
-0.00409163
-0.00414272
-0.00424526
-0.00439567
-0.00461407
-0.00492568
-0.00537074
-0.00601701
-0.00698252
-0.00847537
-0.0108459
-0.0145746
-0.0196579
-0.0253064
-0.0289653
-0.0292915
-0.0242745
-0.016899
-0.0081828
-0.00468518
-0.00479251
-0.00483828
-0.00494558
-0.00511255
-0.00536562
-0.00573494
-0.00626686
-0.00703667
-0.00817112
-0.00988681
-0.0125248
-0.0165111
-0.021728
-0.0275149
-0.0311733
-0.0322027
-0.0279746
-0.022141
-0.013438
-0.00538859
-0.00548774
-0.00549789
-0.0055806
-0.00573714
-0.00599626
-0.00638654
-0.00695244
-0.00776642
-0.00894502
-0.0106848
-0.0132651
-0.0170344
-0.0217156
-0.0270758
-0.0300986
-0.0314889
-0.027597
-0.0239648
-0.0153931
-0.00612796
-0.0062351
-0.00618574
-0.00622308
-0.00632842
-0.00654393
-0.00689766
-0.00743095
-0.00820653
-0.00931847
-0.0109292
-0.0132206
-0.016508
-0.0204628
-0.0247112
-0.0270734
-0.0281289
-0.0242691
-0.0228595
-0.0133772
-0.00700056
-0.00689342
-0.00669993
-0.00659348
-0.00662056
-0.00679018
-0.00711064
-0.00760197
-0.00831016
-0.00930361
-0.0106918
-0.012643
-0.0153208
-0.0184261
-0.0217208
-0.0232304
-0.0238832
-0.0199739
-0.0201161
-0.00634618
-0.00741752
-0.00783188
-0.00745959
-0.00737736
-0.0072574
-0.00727223
-0.00743002
-0.00776285
-0.00831245
-0.00911515
-0.0102859
-0.0118959
-0.0140881
-0.0165548
-0.0192141
-0.0203149
-0.0206544
-0.0166156
-0.0153005
0.00941532
-0.0109026
-0.00830035
-0.00753422
-0.00678346
-0.00657445
-0.00661533
-0.0068477
-0.00722697
-0.0077825
-0.00851639
-0.0095725
-0.01096
-0.0128339
-0.0148629
-0.0169769
-0.0175676
-0.0170031
-0.0115516
-0.00381825
0.0390643
-0.00724604
-0.0102582
-0.00908989
-0.0090015
-0.00841258
-0.00804625
-0.00784851
-0.00784733
-0.00809769
-0.00858025
-0.00943585
-0.0106394
-0.0124554
-0.0144853
-0.016964
-0.0175815
-0.0165573
-0.00450426
0.0178042
0.0936695
-0.0327074
-0.00740922
-0.00579591
-0.00494937
-0.00464064
-0.00472992
-0.00509876
-0.00554403
-0.00618388
-0.00691488
-0.00801962
-0.00930192
-0.0110651
-0.0125307
-0.013502
-0.0103568
-0.000610898
0.0314257
0.0946378
0.224369
0.000139106
0.000103923
0.000157137
0.000261133
0.000426329
0.000655298
0.000953481
0.00132815
0.00178705
0.00233681
0.00298042
0.00371375
0.0045203
0.00536398
0.00618446
0.00689747
0.00740716
0.00765284
0.0076778
0.0074953
0.000180021
0.000143362
0.00020616
0.000313804
0.000478797
0.000704359
0.000996312
0.00136183
0.00180839
0.00234271
0.0029686
0.00368339
0.00447198
0.00530343
0.00611782
0.00682871
0.00733251
0.00756117
0.007569
0.00737283
0.000119623
7.18549e-05
0.000133463
0.000236445
0.000394357
0.000610398
0.000890926
0.00124407
0.00167896
0.00220502
0.00282997
0.00355636
0.00437736
0.0052634
0.00615111
0.00693695
0.00748358
0.00768762
0.00761916
0.00733944
-1.9717e-05
-7.49784e-05
-1.70242e-05
7.77493e-05
0.000223937
0.000424868
0.000687642
0.00102172
0.00143857
0.00195149
0.00257447
0.00331817
0.00418316
0.00514974
0.00615216
0.00706199
0.00768455
0.00784834
0.00764091
0.0072222
-0.000251608
-0.000312835
-0.000261981
-0.00017979
-5.07985e-05
0.000128497
0.000365923
0.000672336
0.00106174
0.00155188
0.0021641
0.00291992
0.0038315
0.00489738
0.00605381
0.00714461
0.00788659
0.00799072
0.00757916
0.00693224
-0.00057446
-0.000641071
-0.000600585
-0.000535603
-0.000430222
-0.000281057
-8.00858e-05
0.000184233
0.000527519
0.000970828
0.00154169
0.00227342
0.00319738
0.00432412
0.0056233
0.00693231
0.00785102
0.00789502
0.00728061
0.0062571
-0.000982516
-0.00105463
-0.0010277
-0.000985036
-0.000910925
-0.00080279
-0.000653666
-0.000453268
-0.000187182
0.000164685
0.000629685
0.00124349
0.00204555
0.00306307
0.00434012
0.00578878
0.00696907
0.00717531
0.00656344
0.00510841
-0.00146758
-0.00154572
-0.00153538
-0.00152028
-0.00148575
-0.00143116
-0.00135255
-0.00124406