/*--------------------------------*- C++ -*----------------------------------*\
  =========                 |
  \\      /  F ield         | OpenFOAM: The Open Source CFD Toolbox
   \\    /   O peration     | Website:  https://openfoam.org
    \\  /    A nd           | Version:  10
     \\/     M anipulation  |
\*---------------------------------------------------------------------------*/
FoamFile
{
    format      ascii;
    class       volVectorField;
    location    "3.775";
    object      U;
}
// * * * * * * * * * * * * * * * * * * * * * * * * * * * * * * * * * * * * * //

dimensions      [0 1 -1 0 0 0 0];

internalField   nonuniform List<vector> 
400
(
(-0.000128667 0.00012543 0)
(-0.000872401 0.000339825 0)
(-0.00203122 0.000385511 0)
(-0.0031093 0.000380633 0)
(-0.00414939 0.000362528 0)
(-0.0051169 0.000337281 0)
(-0.00598782 0.000304499 0)
(-0.0067401 0.000262905 0)
(-0.00734975 0.000211321 0)
(-0.00779153 0.000148851 0)
(-0.00803969 7.50791e-05 0)
(-0.00806893 -9.51467e-06 0)
(-0.00785635 -0.000104526 0)
(-0.00738458 -0.000206984 0)
(-0.00664503 -0.000312498 0)
(-0.00564075 -0.000414865 0)
(-0.0043953 -0.000504668 0)
(-0.00297596 -0.000563711 0)
(-0.0013612 -0.00053632 0)
(-0.000243388 -0.000255074 0)
(-0.00035665 0.000876622 0)
(-0.00175783 0.00170474 0)
(-0.00374302 0.00186458 0)
(-0.00559733 0.00181956 0)
(-0.00736705 0.00170891 0)
(-0.00899406 0.00155863 0)
(-0.0104357 0.00137073 0)
(-0.0116552 0.00114362 0)
(-0.0126151 0.000875711 0)
(-0.0132786 0.000566188 0)
(-0.0136097 0.000215429 0)
(-0.0135759 -0.000174712 0)
(-0.0131483 -0.000596221 0)
(-0.0123064 -0.00103736 0)
(-0.0110439 -0.00148082 0)
(-0.00937131 -0.00190224 0)
(-0.00733044 -0.00226547 0)
(-0.00502019 -0.00249992 0)
(-0.0024253 -0.00240194 0)
(-0.000517337 -0.00134358 0)
(-0.00042576 0.00209794 0)
(-0.00204304 0.003729 0)
(-0.00430388 0.00402399 0)
(-0.00640964 0.00390818 0)
(-0.00841464 0.00365189 0)
(-0.0102548 0.00330794 0)
(-0.0118834 0.0028832 0)
(-0.0132605 0.0023775 0)
(-0.0143458 0.00179015 0)
(-0.0150998 0.00112159 0)
(-0.0154847 0.000374423 0)
(-0.0154614 -0.000445461 0)
(-0.0149952 -0.0013238 0)
(-0.0140624 -0.00223711 0)
(-0.012651 -0.00315053 0)
(-0.010767 -0.00401537 0)
(-0.00845126 -0.00476009 0)
(-0.00581217 -0.00524384 0)
(-0.00282938 -0.00507082 0)
(-0.000613253 -0.00300411 0)
(-0.000451406 0.00332922 0)
(-0.00217607 0.00579337 0)
(-0.00458783 0.00622391 0)
(-0.00683103 0.00603476 0)
(-0.00897004 0.00563309 0)
(-0.0109388 0.00509801 0)
(-0.0126903 0.00444052 0)
(-0.0141842 0.0036611 0)
(-0.0153793 0.00275908 0)
(-0.0162339 0.0017348 0)
(-0.0167063 0.000591711 0)
(-0.0167532 -0.00066063 0)
(-0.0163303 -0.00200625 0)
(-0.0153995 -0.00341248 0)
(-0.0139356 -0.00482871 0)
(-0.0119311 -0.00618108 0)
(-0.00941735 -0.00735752 0)
(-0.00650911 -0.00813669 0)
(-0.00318013 -0.00790727 0)
(-0.000689907 -0.00475963 0)
(-0.000475553 0.00463908 0)
(-0.00230974 0.00799396 0)
(-0.00488127 0.00856869 0)
(-0.00727305 0.00830423 0)
(-0.0095602 0.00775366 0)
(-0.0116752 0.00702385 0)
(-0.013572 0.00613003 0)
(-0.0152107 0.00507291 0)
(-0.0165498 0.00385085 0)
(-0.0175458 0.00246244 0)
(-0.0181519 0.00090917 0)
(-0.0183173 -0.000800778 0)
(-0.0179851 -0.00265017 0)
(-0.0170983 -0.00460106 0)
(-0.0156083 -0.0065901 0)
(-0.0134821 -0.00851731 0)
(-0.01073 -0.0102215 0)
(-0.00747091 -0.0113794 0)
(-0.00367289 -0.0111215 0)
(-0.000800575 -0.00676088 0)
(-0.000506948 0.00603622 0)
(-0.00247894 0.0103525 0)
(-0.00525059 0.0110836 0)
(-0.00782897 0.0107428 0)
(-0.010302 0.0100411 0)
(-0.0126009 0.00911525 0)
(-0.0146812 0.00798495 0)
(-0.0165052 0.00665062 0)
(-0.018032 0.00510833 0)
(-0.0192169 0.00335263 0)
(-0.0200089 0.00137947 0)
(-0.020349 -0.000809362 0)
(-0.0201634 -0.00320293 0)
(-0.019369 -0.0057639 0)
(-0.0178835 -0.00842071 0)
(-0.0156322 -0.0110478 0)
(-0.0125852 -0.0134255 0)
(-0.00885507 -0.0150967 0)
(-0.00439959 -0.0148648 0)
(-0.00097059 -0.0091164 0)
(-0.000547045 0.00754238 0)
(-0.00269105 0.0129057 0)
(-0.00571017 0.0138074 0)
(-0.00851751 0.0133883 0)
(-0.011217 0.0125324 0)
(-0.013739 0.0114094 0)
(-0.0160424 0.0100441 0)
(-0.018093 0.00843621 0)
(-0.0198535 0.00657818 0)
(-0.0212799 0.00445767 0)
(-0.0223186 0.00206066 0)
(-0.0229039 -0.00062374 0)
(-0.0229434 -0.00360109 0)
(-0.0223206 -0.00684576 0)
(-0.0209056 -0.0102899 0)
(-0.018559 -0.0137889 0)
(-0.0151772 -0.0170561 0)
(-0.0108381 -0.0194573 0)
(-0.00547752 -0.0193551 0)
(-0.00123689 -0.0119982 0)
(-0.000596372 0.00918395 0)
(-0.00294955 0.0156978 0)
(-0.00626657 0.0167852 0)
(-0.00934557 0.0162828 0)
(-0.012311 0.0152672 0)
(-0.0150929 0.013945 0)
(-0.0176556 0.0123472 0)
(-0.019972 0.0104731 0)
(-0.0220114 0.00831062 0)
(-0.0237352 0.00583764 0)
(-0.0250908 0.00302422 0)
(-0.026011 -0.000163789 0)
(-0.0263859 -0.00375041 0)
(-0.0260599 -0.00775174 0)
(-0.024842 -0.0121232 0)
(-0.0224957 -0.0167202 0)
(-0.0187902 -0.02119 0)
(-0.0137023 -0.0246709 0)
(-0.00711991 -0.0248973 0)
(-0.00167642 -0.0156795 0)
(-0.000656153 0.0109893 0)
(-0.00325973 0.0187762 0)
(-0.00692858 0.0200629 0)
(-0.0103215 0.0194673 0)
(-0.0135893 0.0182821 0)
(-0.0166627 0.0167563 0)
(-0.0195151 0.0149293 0)
(-0.0221301 0.0128013 0)
(-0.0244894 0.0103554 0)
(-0.0265667 0.00755803 0)
(-0.0283203 0.00435863 0)
(-0.0296784 0.000691618 0)
(-0.0305316 -0.00350855 0)
(-0.0306961 -0.00832143 0)
(-0.0298957 -0.0137655 0)
(-0.0277622 -0.0197403 0)
(-0.0238611 -0.0258542 0)
(-0.0179284 -0.0309745 0)
(-0.00975228 -0.0319179 0)
(-0.00246349 -0.0206298 0)
(-0.00072921 0.0129913 0)
(-0.00363137 0.022193 0)
(-0.00771117 0.0236878 0)
(-0.0114593 0.0229801 0)
(-0.0150611 0.0216082 0)
(-0.0184497 0.0198703 0)
(-0.0216116 0.0178173 0)
(-0.0245467 0.0154525 0)
(-0.0272554 0.0127561 0)
(-0.0297326 0.00968348 0)
(-0.0319578 0.0061614 0)
(-0.0338785 0.00208629 0)
(-0.0353997 -0.00267738 0)
(-0.0363215 -0.00830375 0)
(-0.0362934 -0.0149315 0)
(-0.0347834 -0.0225923 0)
(-0.0310573 -0.0309439 0)
(-0.0243666 -0.0385749 0)
(-0.0142873 -0.0410147 0)
(-0.00401572 -0.0277366 0)
(-0.000821446 0.015231 0)
(-0.00408237 0.0260087 0)
(-0.00863999 0.0277094 0)
(-0.0127828 0.0268564 0)
(-0.0167426 0.0252692 0)
(-0.0204582 0.0233032 0)
(-0.0239342 0.0210246 0)
(-0.0271924 0.0184437 0)
(-0.0302596 0.0155416 0)
(-0.0331626 0.0122663 0)
(-0.0359187 0.00852339 0)
(-0.0385187 0.00416393 0)
(-0.0409241 -0.00103174 0)
(-0.0429595 -0.00733889 0)
(-0.0442386 -0.015136 0)
(-0.0440853 -0.0247304 0)
(-0.0413822 -0.0360317 0)
(-0.034567 -0.0474486 0)
(-0.0227565 -0.0528973 0)
(-0.00737179 -0.0388815 0)
(-0.000944971 0.0177661 0)
(-0.00464509 0.0302969 0)
(-0.00975827 0.0321798 0)
(-0.0143311 0.0311256 0)
(-0.0186617 0.0292771 0)
(-0.0226993 0.0270551 0)
(-0.0264727 0.024545 0)
(-0.0300312 0.0217685 0)
(-0.0334345 0.0187143 0)
(-0.0367527 0.0153325 0)
(-0.0400625 0.0115206 0)
(-0.0434373 0.00709892 0)
(-0.0469092 0.00177357 0)
(-0.0504475 -0.00488509 0)
(-0.0537901 -0.0135721 0)
(-0.0562175 -0.0250835 0)
(-0.0562642 -0.0399492 0)
(-0.0512507 -0.0567696 0)
(-0.0394505 -0.0681445 0)
(-0.0151004 -0.0580738 0)
(-0.00112571 0.020684 0)
(-0.00537939 0.0351539 0)
(-0.0111375 0.0371486 0)
(-0.0161667 0.0358025 0)
(-0.0208637 0.0336256 0)
(-0.0251957 0.0311053 0)
(-0.0292227 0.0283466 0)
(-0.0330249 0.0253878 0)
(-0.0366975 0.0222339 0)
(-0.0403584 0.018852 0)
(-0.044155 0.0151545 0)
(-0.0482705 0.0109631 0)
(-0.0529198 0.00594657 0)
(-0.0583515 -0.000492903 0)
(-0.0646575 -0.00928736 0)
(-0.0714825 -0.0219113 0)
(-0.0773396 -0.0401557 0)
(-0.0783717 -0.0639429 0)
(-0.0706689 -0.0866719 0)
(-0.0307532 -0.0932652 0)
(-0.00141685 0.0240988 0)
(-0.00640898 0.0407388 0)
(-0.0129049 0.0427479 0)
(-0.018383 0.0409872 0)
(-0.0234113 0.0383517 0)
(-0.0279837 0.0354324 0)
(-0.0321921 0.0323707 0)
(-0.0361454 0.0292208 0)
(-0.0399713 0.0260053 0)
(-0.0438327 0.0227251 0)
(-0.0479523 0.0193542 0)
(-0.0526488 0.0158014 0)
(-0.0583812 0.0118207 0)
(-0.0657655 0.00683217 0)
(-0.0756288 -0.00029898 0)
(-0.0888714 -0.0117727 0)
(-0.104633 -0.0313127 0)
(-0.116921 -0.0638974 0)
(-0.115741 -0.10885 0)
(-0.0483945 -0.158642 0)
(-0.00183582 0.0285018 0)
(-0.00770099 0.04665 0)
(-0.0151513 0.0482518 0)
(-0.0211219 0.0457689 0)
(-0.0264671 0.0427136 0)
(-0.0311793 0.03954 0)
(-0.0354327 0.0363122 0)
(-0.0393844 0.0330597 0)
(-0.0431792 0.0298318 0)
(-0.046982 0.0266928 0)
(-0.0510308 0.0237262 0)
(-0.0557281 0.0210058 0)
(-0.0617825 0.0185528 0)
(-0.070375 0.0161328 0)
(-0.083403 0.012846 0)
(-0.103427 0.00590805 0)
(-0.130641 -0.0114995 0)
(-0.151956 -0.0575049 0)
(-0.151069 -0.146957 0)
(-0.0450945 -0.264537 0)
(-0.00373166 0.0325252 0)
(-0.0115194 0.0559672 0)
(-0.0186946 0.0571214 0)
(-0.0245742 0.0541078 0)
(-0.0297173 0.0498965 0)
(-0.0343995 0.0455921 0)
(-0.0386535 0.0414421 0)
(-0.0425583 0.0375439 0)
(-0.0462008 0.0339724 0)
(-0.0497098 0.0308212 0)
(-0.0532973 0.0282888 0)
(-0.0573349 0.0267004 0)
(-0.062546 0.0266011 0)
(-0.0702677 0.0285258 0)
(-0.0829719 0.0324278 0)
(-0.103322 0.0338642 0)
(-0.13222 0.0201723 0)
(-0.149393 -0.0529367 0)
(-0.146893 -0.206794 0)
(-0.0223107 -0.377259 0)
(-0.00154542 0.0466014 0)
(-0.00985749 0.0590127 0)
(-0.022061 0.0581485 0)
(-0.0286356 0.0533343 0)
(-0.0347965 0.0494702 0)
(-0.0393696 0.0458625 0)
(-0.0430065 0.0424059 0)
(-0.0459872 0.0390267 0)
(-0.048486 0.0358178 0)
(-0.0505877 0.0328936 0)
(-0.0523528 0.0306325 0)
(-0.0538485 0.0295187 0)
(-0.0553908 0.0307114 0)
(-0.0574671 0.0351561 0)
(-0.0621527 0.0440159 0)
(-0.0686251 0.0489057 0)
(-0.0891003 0.0355005 0)
(-0.0931209 -0.058824 0)
(-0.0998407 -0.260581 0)
(-0.00307858 -0.458467 0)
(-0.0112797 0.0369929 0)
(-0.025908 0.0825273 0)
(-0.0272146 0.0791789 0)
(-0.035107 0.0733111 0)
(-0.0386761 0.0655621 0)
(-0.0407583 0.0583144 0)
(-0.0413648 0.0518356 0)
(-0.0410518 0.0460807 0)
(-0.0401164 0.0410741 0)
(-0.0385837 0.0367431 0)
(-0.0366993 0.0333493 0)
(-0.0340004 0.0314479 0)
(-0.0308609 0.0322664 0)
(-0.0251716 0.036934 0)
(-0.02033 0.0485135 0)
(-0.00297815 0.0563584 0)
(0.000293729 0.0498614 0)
(0.0321156 -0.0444902 0)
(-0.00312473 -0.277016 0)
(0.0352051 -0.490938 0)
(-0.0752251 0.100126 0)
(-0.0600405 0.0633695 0)
(-0.0610918 0.0616488 0)
(-0.040988 0.0546156 0)
(-0.0242752 0.0473093 0)
(-0.00601199 0.0415122 0)
(0.0109469 0.0369427 0)
(0.0270171 0.0328283 0)
(0.041278 0.0294494 0)
(0.055044 0.0260256 0)
(0.0667601 0.0236272 0)
(0.0792249 0.0212592 0)
(0.0891152 0.0208718 0)
(0.106544 0.0208874 0)
(0.113407 0.0223505 0)
(0.15803 0.0206051 0)
(0.156981 -0.00396161 0)
(0.216753 -0.0616126 0)
(0.155596 -0.256437 0)
(0.124581 -0.44344 0)
(0.120543 0.140298 0)
(0.1545 0.0868007 0)
(0.233953 0.0646675 0)
(0.289607 0.0495516 0)
(0.333182 0.0389876 0)
(0.371321 0.0312192 0)
(0.401929 0.0257504 0)
(0.432082 0.0214946 0)
(0.452649 0.0181083 0)
(0.479127 0.015783 0)
(0.490522 0.0128745 0)
(0.517086 0.0120535 0)
(0.518754 0.00942603 0)
(0.550418 0.00935603 0)
(0.539969 0.00787802 0)
(0.5789 0.00374216 0)
(0.547907 -0.0026794 0)
(0.567141 -0.0304357 0)
(0.435502 -0.0812953 0)
(0.277941 -0.154982 0)
)
;

boundaryField
{
    movingWall
    {
        type            fixedValue;
        value           uniform (1 0 0);
    }
    fixedWalls
    {
        type            noSlip;
    }
    frontAndBack
    {
        type            empty;
    }
}


// ************************************************************************* //
