/*--------------------------------*- C++ -*----------------------------------*\
  =========                 |
  \\      /  F ield         | OpenFOAM: The Open Source CFD Toolbox
   \\    /   O peration     | Website:  https://openfoam.org
    \\  /    A nd           | Version:  10
     \\/     M anipulation  |
\*---------------------------------------------------------------------------*/
FoamFile
{
    format      ascii;
    class       volVectorField;
    location    "9.475";
    object      U;
}
// * * * * * * * * * * * * * * * * * * * * * * * * * * * * * * * * * * * * * //

dimensions      [0 1 -1 0 0 0 0];

internalField   nonuniform List<vector> 
400
(
(-0.000170986 0.000146449 0)
(-0.00129301 0.000474971 0)
(-0.00319674 0.000594494 0)
(-0.00515932 0.000636438 0)
(-0.00720798 0.00066266 0)
(-0.0093066 0.000692998 0)
(-0.0114467 0.000726726 0)
(-0.0136083 0.000755124 0)
(-0.0157422 0.000765023 0)
(-0.0177613 0.000738222 0)
(-0.0195313 0.000651485 0)
(-0.0208616 0.000479138 0)
(-0.021508 0.000199514 0)
(-0.0211844 -0.000208406 0)
(-0.0196209 -0.000720584 0)
(-0.0166678 -0.00126044 0)
(-0.012465 -0.00167691 0)
(-0.00760495 -0.00177189 0)
(-0.00268016 -0.00136986 0)
(-0.000123067 -0.000335921 0)
(-0.000568824 0.00132334 0)
(-0.00295865 0.00276531 0)
(-0.00662751 0.00331359 0)
(-0.0104154 0.00351476 0)
(-0.0143302 0.00360884 0)
(-0.0182826 0.0036739 0)
(-0.0222241 0.00370892 0)
(-0.0260913 0.00367899 0)
(-0.0297779 0.00353015 0)
(-0.0331218 0.00319138 0)
(-0.0358926 0.00257828 0)
(-0.0377841 0.00160191 0)
(-0.0384369 0.000186408 0)
(-0.0374405 -0.00168342 0)
(-0.0344125 -0.0038878 0)
(-0.0291663 -0.00611186 0)
(-0.0219416 -0.00778287 0)
(-0.0136467 -0.00814653 0)
(-0.00527514 -0.00654021 0)
(-0.000588289 -0.00242229 0)
(-0.000751832 0.00346821 0)
(-0.00375298 0.00654645 0)
(-0.00826748 0.00771751 0)
(-0.0128972 0.00813711 0)
(-0.0176521 0.00829504 0)
(-0.0224227 0.00835015 0)
(-0.0271491 0.00830422 0)
(-0.0317584 0.00809036 0)
(-0.036134 0.00760292 0)
(-0.0400998 0.00670394 0)
(-0.0434059 0.00523083 0)
(-0.0457208 0.00301572 0)
(-0.0466226 -7.63128e-05 0)
(-0.0455992 -0.00405529 0)
(-0.0421344 -0.00871272 0)
(-0.0358788 -0.0134226 0)
(-0.0269767 -0.0170108 0)
(-0.016526 -0.0178073 0)
(-0.00601006 -0.014344 0)
(-0.000487378 -0.00570196 0)
(-0.000813889 0.00578077 0)
(-0.00407289 0.0106233 0)
(-0.00896301 0.0124376 0)
(-0.0139602 0.0130646 0)
(-0.0190907 0.0132752 0)
(-0.0242485 0.0133166 0)
(-0.0293871 0.0131968 0)
(-0.0344529 0.0128207 0)
(-0.0393531 0.0120341 0)
(-0.0439367 0.0106311 0)
(-0.0479692 0.00835949 0)
(-0.0511086 0.00494593 0)
(-0.0528764 0.000158544 0)
(-0.0526355 -0.00608981 0)
(-0.0495992 -0.0135869 0)
(-0.0430015 -0.0214288 0)
(-0.0325655 -0.0276801 0)
(-0.0194454 -0.0292077 0)
(-0.00608116 -0.0231127 0)
(4.08095e-05 -0.00868248 0)
(-0.000814833 0.00819313 0)
(-0.00414958 0.0148976 0)
(-0.00918315 0.0173881 0)
(-0.0143327 0.0182392 0)
(-0.0196439 0.0185266 0)
(-0.0250289 0.0185973 0)
(-0.030473 0.0184727 0)
(-0.0359639 0.0180367 0)
(-0.0414604 0.0170914 0)
(-0.0468701 0.0153613 0)
(-0.0520119 0.0124892 0)
(-0.056562 0.00805015 0)
(-0.0599928 0.00161967 0)
(-0.0615231 -0.00709815 0)
(-0.059988 -0.018066 0)
(-0.0538868 -0.0302496 0)
(-0.0419033 -0.0407915 0)
(-0.0246897 -0.0440397 0)
(-0.00625212 -0.0339325 0)
(0.000986247 -0.0113189 0)
(-0.000786239 0.0106018 0)
(-0.00410501 0.0192244 0)
(-0.009167 0.0224242 0)
(-0.0143672 0.0235286 0)
(-0.0197695 0.0239389 0)
(-0.0253124 0.0241161 0)
(-0.0310257 0.0241088 0)
(-0.0369574 0.0237931 0)
(-0.0431452 0.0229396 0)
(-0.0495947 0.0212093 0)
(-0.0562356 0.0181302 0)
(-0.062841 0.0130845 0)
(-0.0689317 0.00533942 0)
(-0.0736941 -0.0058273 0)
(-0.075568 -0.0208278 0)
(-0.0718504 -0.0391055 0)
(-0.0589555 -0.0570573 0)
(-0.0357493 -0.0647121 0)
(-0.0082784 -0.0486318 0)
(0.00226327 -0.0135579 0)
(-0.000740479 0.0129499 0)
(-0.003991 0.0235208 0)
(-0.00901391 0.0274611 0)
(-0.014199 0.0288527 0)
(-0.0196247 0.0294409 0)
(-0.025259 0.0298185 0)
(-0.0311835 0.0300801 0)
(-0.0375224 0.0301171 0)
(-0.0444204 0.0296953 0)
(-0.0520312 0.0284384 0)
(-0.0604834 0.0257806 0)
(-0.0698104 0.0209144 0)
(-0.079838 0.0127501 0)
(-0.0899589 -9.46269e-05 0)
(-0.0984233 -0.0192169 0)
(-0.100559 -0.0459354 0)
(-0.0883312 -0.0768244 0)
(-0.0579446 -0.0946846 0)
(-0.0176379 -0.0714429 0)
(0.0029048 -0.0171585 0)
(-0.000681147 0.0152027 0)
(-0.00382535 0.027736 0)
(-0.00875597 0.0324421 0)
(-0.0138611 0.0341472 0)
(-0.0192279 0.0349596 0)
(-0.0248512 0.0356256 0)
(-0.0308641 0.0363095 0)
(-0.0374737 0.0369506 0)
(-0.0449542 0.0373563 0)
(-0.0536583 0.0371796 0)
(-0.0640179 0.0358501 0)
(-0.0765402 0.0324879 0)
(-0.0917734 0.0257578 0)
(-0.109915 0.0133182 0)
(-0.12895 -0.00926349 0)
(-0.140354 -0.0476254 0)
(-0.130139 -0.0996123 0)
(-0.0949981 -0.135611 0)
(-0.0442512 -0.109017 0)
(-0.000326125 -0.0285692 0)
(-0.000610676 0.0173318 0)
(-0.0036185 0.0318276 0)
(-0.00840799 0.0373098 0)
(-0.0133584 0.0393325 0)
(-0.0185569 0.0403874 0)
(-0.0240164 0.0413975 0)
(-0.0299117 0.0426249 0)
(-0.036524 0.0440964 0)
(-0.0442532 0.0457257 0)
(-0.053671 0.0473043 0)
(-0.0655934 0.0484419 0)
(-0.0811902 0.0484638 0)
(-0.102131 0.0460027 0)
(-0.129701 0.0370902 0)
(-0.16023 0.0118439 0)
(-0.179788 -0.0432711 0)
(-0.172595 -0.123721 0)
(-0.141416 -0.182065 0)
(-0.0898273 -0.164936 0)
(-0.0129187 -0.0594405 0)
(-0.000534998 0.0193164 0)
(-0.0033906 0.035761 0)
(-0.00799919 0.0420044 0)
(-0.0127129 0.0443126 0)
(-0.01761 0.0455794 0)
(-0.0227053 0.0469281 0)
(-0.0281939 0.0487453 0)
(-0.0344004 0.0511865 0)
(-0.0418073 0.0543457 0)
(-0.0511482 0.05829 0)
(-0.0635426 0.0630485 0)
(-0.0806681 0.0684173 0)
(-0.104996 0.0728122 0)
(-0.138125 0.0692013 0)
(-0.174151 0.0398424 0)
(-0.195392 -0.0345616 0)
(-0.191899 -0.142333 0)
(-0.171935 -0.224784 0)
(-0.128824 -0.236269 0)
(-0.0350931 -0.125496 0)
(-0.000466424 0.0211533 0)
(-0.00318179 0.0395152 0)
(-0.00759204 0.0464615 0)
(-0.0119919 0.0489672 0)
(-0.0164448 0.0503464 0)
(-0.0209462 0.0519394 0)
(-0.0256795 0.0542684 0)
(-0.0309553 0.0576391 0)
(-0.0372402 0.0623729 0)
(-0.0452577 0.0689055 0)
(-0.0561376 0.077817 0)
(-0.0714541 0.0893344 0)
(-0.0931082 0.100838 0)
(-0.121961 0.101028 0)
(-0.151336 0.0661384 0)
(-0.167141 -0.0231273 0)
(-0.167295 -0.14839 0)
(-0.157763 -0.255237 0)
(-0.133062 -0.30833 0)
(-0.049916 -0.228798 0)
(-0.000430337 0.0228825 0)
(-0.00307189 0.0431366 0)
(-0.00730804 0.0506937 0)
(-0.0113319 0.0532507 0)
(-0.0152054 0.0545582 0)
(-0.0188896 0.0561851 0)
(-0.022525 0.0587837 0)
(-0.0263413 0.0627893 0)
(-0.0306615 0.0687178 0)
(-0.035949 0.077301 0)
(-0.0428631 0.0894783 0)
(-0.0521375 0.105505 0)
(-0.0643282 0.121399 0)
(-0.0798628 0.122599 0)
(-0.0947661 0.0835754 0)
(-0.102177 -0.0131865 0)
(-0.10615 -0.142307 0)
(-0.107719 -0.261922 0)
(-0.108961 -0.350571 0)
(-0.0436297 -0.323321 0)
(-0.000458098 0.0245578 0)
(-0.00314984 0.0465766 0)
(-0.00729917 0.0544893 0)
(-0.0109388 0.0568378 0)
(-0.0141484 0.0578357 0)
(-0.0168432 0.0592328 0)
(-0.0191166 0.0617474 0)
(-0.0210834 0.0658751 0)
(-0.0228507 0.0721996 0)
(-0.0245028 0.08151 0)
(-0.026058 0.0947294 0)
(-0.0272978 0.111861 0)
(-0.0278115 0.128458 0)
(-0.0279802 0.129307 0)
(-0.0287148 0.0903101 0)
(-0.0296564 -0.00663257 0)
(-0.0404701 -0.128505 0)
(-0.0537122 -0.248356 0)
(-0.0786672 -0.363612 0)
(-0.0298937 -0.386783 0)
(-0.000661531 0.0265194 0)
(-0.0037279 0.0505012 0)
(-0.00792889 0.0586852 0)
(-0.0110994 0.0605969 0)
(-0.0135128 0.0608706 0)
(-0.0151063 0.0615235 0)
(-0.0159153 0.0633524 0)
(-0.0159273 0.0668582 0)
(-0.0150571 0.0725704 0)
(-0.0130564 0.0811279 0)
(-0.00944749 0.0931653 0)
(-0.00333218 0.108429 0)
(0.00592309 0.12309 0)
(0.01843 0.123484 0)
(0.0269717 0.0884471 0)
(0.0314699 0.000295326 0)
(0.0131289 -0.109823 0)
(-0.00916535 -0.221835 0)
(-0.0549945 -0.360257 0)
(-0.0197676 -0.433641 0)
(-0.00100159 0.0289624 0)
(-0.00448082 0.0535806 0)
(-0.00909557 0.0609581 0)
(-0.0120954 0.0616502 0)
(-0.0139433 0.0610678 0)
(-0.0144765 0.0610538 0)
(-0.0138049 0.062217 0)
(-0.0118923 0.064878 0)
(-0.0085706 0.0694056 0)
(-0.00344697 0.0761491 0)
(0.00417118 0.0855411 0)
(0.0155112 0.096953 0)
(0.0307228 0.107475 0)
(0.0503522 0.106898 0)
(0.0645521 0.078541 0)
(0.0730574 0.0076582 0)
(0.0498531 -0.0854442 0)
(0.0256561 -0.183658 0)
(-0.0381137 -0.342299 0)
(-0.00909998 -0.465839 0)
(-0.00308874 0.0308703 0)
(-0.00893389 0.0602224 0)
(-0.0128249 0.0674367 0)
(-0.014694 0.0674505 0)
(-0.0150467 0.0649845 0)
(-0.0142184 0.0629545 0)
(-0.0121876 0.0620831 0)
(-0.00876638 0.0626689 0)
(-0.00370179 0.0649301 0)
(0.00361561 0.0689623 0)
(0.0137501 0.0749682 0)
(0.0276927 0.0820918 0)
(0.0450835 0.0881206 0)
(0.0671138 0.0862851 0)
(0.0827469 0.0659042 0)
(0.0942352 0.0146234 0)
(0.0692796 -0.0568098 0)
(0.0462827 -0.140765 0)
(-0.0279122 -0.321999 0)
(0.00201331 -0.48965 0)
(-0.000911082 0.0440965 0)
(-0.00733945 0.0613053 0)
(-0.0162788 0.0641587 0)
(-0.0180526 0.0604979 0)
(-0.0186222 0.0574854 0)
(-0.0169186 0.0554998 0)
(-0.0136887 0.0545564 0)
(-0.00878793 0.0545476 0)
(-0.00207631 0.0555392 0)
(0.00701653 0.0575489 0)
(0.0188509 0.0606744 0)
(0.0340984 0.0642433 0)
(0.0517254 0.0668938 0)
(0.0738134 0.0643793 0)
(0.088428 0.0506847 0)
(0.101635 0.0175295 0)
(0.0772545 -0.0330251 0)
(0.0616644 -0.101713 0)
(-0.0105059 -0.29976 0)
(0.0204656 -0.499445 0)
(-0.0125787 0.0321613 0)
(-0.0229446 0.0806608 0)
(-0.0203581 0.0810088 0)
(-0.023997 0.076128 0)
(-0.02316 0.0687009 0)
(-0.020499 0.0625807 0)
(-0.0157248 0.0577455 0)
(-0.00899878 0.0540853 0)
(-0.000383541 0.0516015 0)
(0.0105413 0.0500623 0)
(0.0236508 0.0495642 0)
(0.0395893 0.0494009 0)
(0.0563556 0.0497758 0)
(0.077248 0.0476642 0)
(0.089284 0.0414346 0)
(0.105517 0.0248785 0)
(0.0881708 -0.00636877 0)
(0.0971608 -0.0628653 0)
(0.0388489 -0.272579 0)
(0.0567902 -0.48833 0)
(-0.0776967 0.0957267 0)
(-0.0632171 0.0587253 0)
(-0.0649713 0.0600596 0)
(-0.0421222 0.053464 0)
(-0.0240327 0.0464729 0)
(-0.0031041 0.0412977 0)
(0.0166528 0.0375346 0)
(0.0368312 0.0343586 0)
(0.0555837 0.0320726 0)
(0.0760405 0.0300096 0)
(0.0938422 0.0288681 0)
(0.11655 0.0276843 0)
(0.132298 0.0268517 0)
(0.160608 0.025396 0)
(0.169714 0.0197566 0)
(0.20234 0.0107669 0)
(0.189059 -0.0216043 0)
(0.221196 -0.0734024 0)
(0.153589 -0.251429 0)
(0.124504 -0.432579 0)
(0.11933 0.140704 0)
(0.151824 0.0859703 0)
(0.228227 0.0634182 0)
(0.283714 0.0479905 0)
(0.325199 0.0373904 0)
(0.363556 0.0296487 0)
(0.39235 0.0242588 0)
(0.42361 0.0201971 0)
(0.443661 0.0173232 0)
(0.472266 0.0150044 0)
(0.485221 0.0133271 0)
(0.514565 0.0119292 0)
(0.520093 0.0108148 0)
(0.552112 0.00945723 0)
(0.54682 0.00744123 0)
(0.57841 0.00296922 0)
(0.546372 -0.00581541 0)
(0.552022 -0.0267998 0)
(0.419136 -0.0729314 0)
(0.274717 -0.151577 0)
)
;

boundaryField
{
    movingWall
    {
        type            fixedValue;
        value           uniform (1 0 0);
    }
    fixedWalls
    {
        type            noSlip;
    }
    frontAndBack
    {
        type            empty;
    }
}


// ************************************************************************* //
