/*--------------------------------*- C++ -*----------------------------------*\
  =========                 |
  \\      /  F ield         | OpenFOAM: The Open Source CFD Toolbox
   \\    /   O peration     | Website:  https://openfoam.org
    \\  /    A nd           | Version:  10
     \\/     M anipulation  |
\*---------------------------------------------------------------------------*/
FoamFile
{
    format      ascii;
    class       surfaceScalarField;
    location    "4.95";
    object      phi;
}
// * * * * * * * * * * * * * * * * * * * * * * * * * * * * * * * * * * * * * //

dimensions      [0 3 -1 0 0 0 0];

internalField   nonuniform List<scalar> 
22800
(
-2.16796e-06
2.5402e-06
-3.75313e-07
-7.22547e-06
5.00409e-06
5.34174e-08
-1.3115e-05
5.65595e-06
2.3363e-07
-1.91743e-05
5.73759e-06
3.21654e-07
-2.51468e-05
5.64831e-06
3.24226e-07
-3.08957e-05
5.4772e-06
2.71637e-07
-3.62913e-05
5.21712e-06
1.78487e-07
-4.11739e-05
4.83846e-06
4.41686e-08
-4.53598e-05
4.30506e-06
-1.19163e-07
-4.86212e-05
3.58521e-06
-3.23763e-07
-5.06984e-05
2.65123e-06
-5.74069e-07
-5.13083e-05
1.48585e-06
-8.75937e-07
-5.01692e-05
7.35187e-08
-1.21267e-06
-4.70542e-05
-1.54502e-06
-1.5699e-06
-4.18209e-05
-3.30884e-06
-1.92451e-06
-3.44908e-05
-5.09273e-06
-2.23738e-06
-2.53501e-05
-6.70007e-06
-2.44058e-06
-1.51257e-05
-7.78787e-06
-2.43652e-06
-5.31903e-06
-7.64953e-06
-2.15717e-06
-4.30133e-06
-1.0177e-06
-4.5585e-06
8.3041e-06
-1.2054e-06
-1.32515e-05
1.4543e-05
-8.45955e-07
-2.30733e-05
1.61371e-05
-6.59315e-07
-3.30466e-05
1.62181e-05
-5.07255e-07
-4.27571e-05
1.57913e-05
-4.32494e-07
-5.19598e-05
1.5086e-05
-4.06064e-07
-6.04322e-05
1.41038e-05
-4.14266e-07
-6.79276e-05
1.27916e-05
-4.57777e-07
-7.41633e-05
1.10827e-05
-5.4188e-07
-7.88155e-05
8.90947e-06
-6.72e-07
-8.15168e-05
6.20477e-06
-8.52241e-07
-8.19053e-05
2.95833e-06
-1.08407e-06
-7.96331e-05
-8.20153e-07
-1.37851e-06
-7.43503e-05
-5.12997e-06
-1.69778e-06
-6.5905e-05
-9.72862e-06
-2.0256e-06
-5.43597e-05
-1.43229e-05
-2.31504e-06
-4.01485e-05
-1.84307e-05
-2.48064e-06
-2.43269e-05
-2.12011e-05
-2.40835e-06
-9.04999e-06
-2.08948e-05
-2.03167e-06
-1.26757e-05
-6.75626e-07
-5.33056e-06
1.52455e-05
-1.61088e-06
-1.52831e-05
2.58012e-05
-1.30559e-06
-2.64392e-05
2.84073e-05
-1.11412e-06
-3.77159e-05
2.84264e-05
-9.31559e-07
-4.86684e-05
2.75621e-05
-8.18319e-07
-5.90349e-05
2.62021e-05
-7.4953e-07
-6.85787e-05
2.43599e-05
-7.12308e-07
-7.70377e-05
2.19613e-05
-7.10766e-07
-8.41096e-05
1.89084e-05
-7.53823e-07
-8.94471e-05
1.50962e-05
-8.49202e-07
-9.26684e-05
1.04301e-05
-1.00399e-06
-9.33402e-05
4.85485e-06
-1.22472e-06
-9.10074e-05
-1.64305e-06
-1.50992e-06
-8.5292e-05
-8.99944e-06
-1.84598e-06
-7.59397e-05
-1.6875e-05
-2.20589e-06
-6.29453e-05
-2.47827e-05
-2.53464e-06
-4.67306e-05
-3.19161e-05
-2.72924e-06
-2.84669e-05
-3.68129e-05
-2.6519e-06
-1.06578e-05
-3.64782e-05
-2.22568e-06
-2.26531e-05
-6.80434e-07
-5.57757e-06
2.27559e-05
-1.93282e-06
-1.60737e-05
3.79809e-05
-1.6836e-06
-2.78302e-05
4.16578e-05
-1.49402e-06
-3.97244e-05
4.16127e-05
-1.29212e-06
-5.13137e-05
4.03065e-05
-1.15508e-06
-6.2348e-05
3.82963e-05
-1.05998e-06
-7.26021e-05
3.56102e-05
-9.96315e-07
-8.18222e-05
3.21508e-05
-9.6932e-07
-8.97074e-05
2.77825e-05
-9.88881e-07
-9.58961e-05
2.23537e-05
-1.06883e-06
-9.99622e-05
1.57166e-05
-1.22049e-06
-0.000101421
7.76679e-06
-1.45354e-06
-9.97458e-05
-1.53094e-06
-1.78686e-06
-9.43481e-05
-1.22174e-05
-2.17981e-06
-8.4811e-05
-2.3796e-05
-2.61602e-06
-7.09564e-05
-3.56075e-05
-3.02979e-06
-5.31214e-05
-4.64549e-05
-3.29621e-06
-3.25816e-05
-5.41108e-05
-3.24182e-06
-1.22457e-05
-5.40514e-05
-2.76281e-06
-3.39604e-05
-9.38374e-07
-5.72565e-06
3.06988e-05
-2.21719e-06
-1.66647e-05
5.09362e-05
-2.0162e-06
-2.89462e-05
5.57695e-05
-1.83016e-06
-4.14109e-05
5.56934e-05
-1.61607e-06
-5.36248e-05
5.39869e-05
-1.46638e-06
-6.53612e-05
5.13923e-05
-1.35951e-06
-7.64205e-05
4.79562e-05
-1.28674e-06
-8.65715e-05
4.3558e-05
-1.25613e-06
-9.55255e-05
3.80176e-05
-1.28119e-06
-0.000102914
3.11201e-05
-1.37814e-06
-0.000108269
2.2637e-05
-1.56463e-06
-0.000111008
1.23651e-05
-1.85944e-06
-0.000110508
2.54084e-07
-2.28487e-06
-0.000105908
-1.40258e-05
-2.79153e-06
-9.65283e-05
-2.97966e-05
-3.3797e-06
-8.18791e-05
-4.6292e-05
-3.96461e-06
-6.20789e-05
-6.18737e-05
-4.38149e-06
-3.84766e-05
-7.33191e-05
-4.39401e-06
-1.45886e-05
-7.40929e-05
-3.8465e-06
-4.69999e-05
-1.54906e-06
-5.89215e-06
3.91095e-05
-2.51857e-06
-1.73417e-05
6.47506e-05
-2.36486e-06
-3.02373e-05
7.08489e-05
-2.18388e-06
-4.33717e-05
7.07887e-05
-1.96097e-06
-5.6323e-05
6.87422e-05
-1.80408e-06
-6.88975e-05
6.566e-05
-1.69321e-06
-8.09349e-05
6.16155e-05
-1.62188e-06
-9.22426e-05
5.6467e-05
-1.60132e-06
-0.000102562
4.99866e-05
-1.6492e-06
-0.000111536
4.18815e-05
-1.78738e-06
-0.00011867
3.1811e-05
-2.04009e-06
-0.000123302
1.94289e-05
-2.4321e-06
-0.000124552
4.48437e-06
-2.98e-06
-0.000121413
-1.34427e-05
-3.72266e-06
-0.000112664
-3.39682e-05
-4.57756e-06
-9.73316e-05
-5.61573e-05
-5.46667e-06
-7.51063e-05
-7.79283e-05
-6.17068e-06
-4.72813e-05
-9.47992e-05
-6.34499e-06
-1.82339e-05
-9.74175e-05
-5.72282e-06
-6.25579e-05
-2.67588e-06
-6.09669e-06
4.80836e-05
-2.87747e-06
-1.81568e-05
7.95905e-05
-2.77968e-06
-3.17764e-05
8.70736e-05
-2.6051e-06
-4.56865e-05
8.70709e-05
-2.37205e-06
-5.94812e-05
8.47437e-05
-2.20676e-06
-7.30119e-05
8.12825e-05
-2.09178e-06
-8.61748e-05
7.68025e-05
-2.02404e-06
-9.8839e-05
7.11503e-05
-2.0192e-06
-0.000110805
6.40536e-05
-2.10058e-06
-0.00012176
5.51341e-05
-2.29811e-06
-0.000131213
4.39115e-05
-2.64768e-06
-0.000138425
2.98311e-05
-3.18945e-06
-0.000142335
1.23527e-05
-3.95849e-06
-0.000141607
-9.13095e-06
-5.04012e-06
-0.000134369
-3.48737e-05
-6.33274e-06
-0.000118854
-6.39171e-05
-7.75448e-06
-9.39336e-05
-9.38438e-05
-9.00516e-06
-6.05006e-05
-0.000118672
-9.56027e-06
-2.40323e-05
-0.000124988
-8.89783e-06
-8.18789e-05
-4.71124e-06
-6.34021e-06
5.77472e-05
-3.32334e-06
-1.91148e-05
9.56628e-05
-3.29774e-06
-3.35567e-05
0.000104645
-3.12957e-06
-4.83197e-05
0.000104714
-2.87988e-06
-6.30192e-05
0.000102141
-2.6982e-06
-7.75659e-05
9.84007e-05
-2.57146e-06
-9.19341e-05
9.36724e-05
-2.50177e-06
-0.000106084
8.78114e-05
-2.51097e-06
-0.000119917
8.05168e-05
-2.6304e-06
-0.000133214
7.13333e-05
-2.90183e-06
-0.000145554
5.96307e-05
-3.37938e-06
-0.00015619
4.45947e-05
-4.12755e-06
-0.000163893
2.52706e-05
-5.21514e-06
-0.000167077
8.93133e-07
-6.84048e-06
-0.000162883
-3.0241e-05
-8.82647e-06
-0.000148448
-6.71783e-05
-1.11734e-05
-0.000121138
-0.000107689
-1.34646e-05
-8.06963e-05
-0.000144222
-1.48922e-05
-3.36696e-05
-0.000157645
-1.43699e-05
-0.000106989
-8.55983e-06
-6.63322e-06
6.82682e-05
-3.88773e-06
-2.02346e-05
0.000113223
-3.95851e-06
-3.55821e-05
0.000123787
-3.79412e-06
-5.12347e-05
0.000123881
-3.51413e-06
-6.68359e-05
0.000121042
-3.29915e-06
-8.23727e-05
0.000117081
-3.14323e-06
-9.7921e-05
0.000112277
-3.05614e-06
-0.000113567
0.000106526
-3.06808e-06
-0.000129363
9.95338e-05
-3.22123e-06
-0.000145261
9.08059e-05
-3.57416e-06
-0.000161015
7.95921e-05
-4.20819e-06
-0.000176015
6.48265e-05
-5.23145e-06
-0.000189052
4.50944e-05
-6.78691e-06
-0.00019788
1.87425e-05
-9.02082e-06
-0.00019942
-1.64569e-05
-1.22443e-05
-0.000188722
-6.16733e-05
-1.62034e-05
-0.000160685
-0.000115263
-2.04627e-05
-0.000112469
-0.000168603
-2.3835e-05
-5.073e-05
-0.000195239
-2.4145e-05
-0.000141163
-1.65556e-05
-7.01267e-06
7.98949e-05
-4.61412e-06
-2.15834e-05
0.000132608
-4.81435e-06
-3.79109e-05
0.00014476
-4.64612e-06
-5.44427e-05
0.000144723
-4.31093e-06
-7.08618e-05
0.000141493
-4.03226e-06
-8.72496e-05
0.000137284
-3.81537e-06
-0.000103807
0.000132515
-3.68094e-06
-0.000120779
0.000127168
-3.66985e-06
-0.000138423
0.000121015
-3.83802e-06
-0.000156951
0.0001136
-4.26595e-06
-0.000176429
0.000104144
-5.07334e-06
-0.000196578
9.14112e-05
-6.43617e-06
-0.000216428
7.3541e-05
-8.59654e-06
-0.000233764
4.79089e-05
-1.18301e-05
-0.000244869
1.14373e-05
-1.67894e-05
-0.000242759
-4.03964e-05
-2.33862e-05
-0.000218558
-0.000108189
-3.12745e-05
-0.000164247
-0.00018407
-3.88437e-05
-8.30044e-05
-0.000234258
-4.22238e-05
-0.000190328
-3.38396e-05
-7.56669e-06
9.30318e-05
-5.57017e-06
-2.33186e-05
0.000154302
-5.94272e-06
-4.07043e-05
0.0001679
-5.75357e-06
-5.80526e-05
0.000167391
-5.31976e-06
-7.51081e-05
0.000163474
-4.92588e-06
-9.20689e-05
0.000158839
-4.59427e-06
-0.000109278
0.000154085
-4.36083e-06
-0.000127158
0.000149327
-4.2791e-06
-0.000146209
0.000144486
-4.42045e-06
-0.000166986
0.000139267
-4.8905e-06
-0.00019003
0.000133043
-5.85523e-06
-0.000215687
0.000124647
-7.57878e-06
-0.000243731
0.000112048
-1.04629e-05
-0.00027264
9.19084e-05
-1.50913e-05
-0.000298195
5.9225e-05
-2.2232e-05
-0.000313476
7.90538e-06
-3.30211e-05
-0.000303254
-7.14143e-05
-4.69967e-05
-0.000251009
-0.000173585
-6.27302e-05
-0.000147257
-0.00026328
-7.47308e-05
-0.000265301
-7.22839e-05
-8.48049e-06
0.000108381
-6.86894e-06
-2.57563e-05
0.000179044
-7.46597e-06
-4.42959e-05
0.000193661
-7.22199e-06
-6.23364e-05
0.000192046
-6.61397e-06
-7.97309e-05
0.000186887
-6.01827e-06
-9.68261e-05
0.000181418
-5.48423e-06
-0.000114115
0.000176442
-5.0686e-06
-0.000132189
0.000172239
-4.83756e-06
-0.000151783
0.000168957
-4.87704e-06
-0.000173826
0.000166628
-5.31711e-06
-0.000199473
0.000165063
-6.37302e-06
-0.000230027
0.000163611
-8.40959e-06
-0.000266628
0.000160681
-1.20324e-05
-0.000309464
0.000152899
-1.8154e-05
-0.000356482
0.000134132
-2.78894e-05
-0.000399557
9.39122e-05
-4.29317e-05
-0.000423445
1.76326e-05
-6.51588e-05
-0.000393249
-0.0001118
-9.19808e-05
-0.000267191
-0.000270182
-0.000119155
-0.000393934
-0.000138558
-1.0133e-05
0.000127221
-8.70713e-06
-2.9492e-05
0.000207966
-9.56281e-06
-4.93014e-05
0.000222654
-9.18354e-06
-6.78193e-05
0.000218833
-8.26902e-06
-8.51062e-05
0.000211513
-7.33909e-06
-0.000101718
0.000204505
-6.47517e-06
-0.000118297
0.000198776
-5.75539e-06
-0.00013554
0.000194737
-5.25471e-06
-0.000154329
0.000192816
-5.07061e-06
-0.000175868
0.000193511
-5.34441e-06
-0.000201867
0.000197379
-6.31557e-06
-0.000234712
0.00020486
-8.40436e-06
-0.000277577
0.000215872
-1.23265e-05
-0.000334082
0.000228559
-1.91548e-05
-0.000407197
0.00023738
-3.01331e-05
-0.00049488
0.00022779
-4.61954e-05
-0.000578596
0.000169267
-6.79185e-05
-0.000599997
4.02845e-09
-9.0402e-05
-0.000461875
-0.000297417
-0.000110889
-0.000681119
-0.00017469
-1.33686e-05
0.000152116
-1.15263e-05
-3.56882e-05
0.000243129
-1.28434e-05
-5.67641e-05
0.000255993
-1.22632e-05
-7.52877e-05
0.000248162
-1.08053e-05
-9.18275e-05
0.000237264
-9.21078e-06
-0.000107215
0.000227582
-7.68882e-06
-0.000122144
0.000220095
-6.38943e-06
-0.000137307
0.000215311
-5.41054e-06
-0.000153566
0.000213903
-4.82906e-06
-0.000172157
0.000216865
-4.76265e-06
-0.00019505
0.00022569
-5.41873e-06
-0.000225421
0.000242381
-7.14951e-06
-0.000268566
0.000269476
-1.04591e-05
-0.000332488
0.000308093
-1.56109e-05
-0.000428884
0.000354909
-2.11329e-05
-0.000566536
0.000386344
-2.09019e-05
-0.000738313
0.000344231
-3.18599e-06
-0.000852716
6.57368e-05
4.86694e-05
-0.000707375
-0.000540922
9.81643e-05
-0.00131246
-7.60381e-05
-1.88173e-05
0.000186666
-1.57326e-05
-4.5237e-05
0.000286163
-1.66147e-05
-6.77866e-05
0.000293925
-1.53819e-05
-8.63893e-05
0.000279643
-1.28784e-05
-0.000101654
0.000262991
-1.0463e-05
-0.000114796
0.000248954
-8.22984e-06
-0.000126759
0.00023836
-6.30247e-06
-0.000138206
0.000231512
-4.75398e-06
-0.000149714
0.000229048
-3.63583e-06
-0.000162038
0.000232191
-3.00197e-06
-0.000176682
0.000243228
-2.89418e-06
-0.000196453
0.000265418
-3.26698e-06
-0.000228057
0.000304668
-3.58814e-06
-0.000283843
0.000364755
-8.76065e-07
-0.000390648
0.000446796
1.49173e-05
-0.000581991
0.000509589
6.80985e-05
-0.000879252
0.000452311
0.000189181
-0.00111635
-6.4249e-05
0.000367078
-0.000929467
-0.00116628
0.000438482
-0.00225085
8.92336e-06
-3.92108e-05
0.000249649
-2.37722e-05
-6.84971e-05
0.000342042
-2.65919e-05
-8.85166e-05
0.000337956
-2.40117e-05
-0.000101935
0.000312843
-1.9782e-05
-0.000112608
0.000288718
-1.50543e-05
-0.000121907
0.000268915
-1.06623e-05
-0.000130288
0.00025363
-6.88826e-06
-0.000137583
0.000242665
-3.85747e-06
-0.00014353
0.000236578
-1.58347e-06
-0.000147636
0.000236285
1.24661e-08
-0.000150144
0.000244702
1.03476e-06
-0.000152129
0.000265116
2.28609e-06
-0.000160465
0.000306789
6.21526e-06
-0.00018896
0.000372182
2.10684e-05
-0.000286718
0.000475055
6.94994e-05
-0.000516769
0.000544632
0.000195008
-0.000936765
0.000445444
0.000426863
-0.00125588
-0.000403829
0.000658697
-0.00103039
-0.00194906
0.000557287
-0.00314952
-0.000131717
-3.3002e-05
0.000321659
-3.90083e-05
-7.97063e-05
0.000424508
-3.57616e-05
-0.00010804
0.000396644
-3.03544e-05
-0.00012604
0.000352015
-2.11722e-05
-0.000134947
0.000311584
-1.39584e-05
-0.000138444
0.00027997
-7.55821e-06
-0.00013867
0.000256151
-2.29572e-06
-0.000136386
0.000238456
1.92464e-06
-0.00013142
0.000226516
5.09528e-06
-0.000121999
0.000219658
7.20611e-06
-0.000106551
0.000220598
8.65523e-06
-8.24397e-05
0.000230157
1.08484e-05
-5.28762e-05
0.000259211
1.80148e-05
-3.04044e-05
0.00030695
4.27595e-05
-6.36238e-05
0.000396105
0.000112169
-0.000248489
0.000455245
0.000274252
-0.000665195
0.000320591
0.000541559
-0.00105175
-0.000720635
0.00070336
-0.000951877
-0.00244204
0.000393107
-0.00372486
-0.000376537
-0.000178194
0.000550481
-5.06281e-05
-0.000182688
0.000487959
-5.89573e-05
-0.00016643
0.000432908
-5.25216e-05
-0.000149848
0.000374758
-3.93246e-05
-0.000127304
0.00031285
-2.38098e-05
-0.000103575
0.000266577
-1.0336e-05
-8.0408e-05
0.000232945
3.90344e-08
-5.71088e-05
0.000207281
7.87642e-06
-3.28452e-05
0.000189117
1.31355e-05
-4.40495e-06
0.000175195
1.60225e-05
3.0654e-05
0.000168613
1.69264e-05
7.72641e-05
0.000166309
1.72377e-05
0.000138328
0.000177205
2.09429e-05
0.000213762
0.000194747
3.67692e-05
0.000281785
0.000235343
9.27398e-05
0.000274089
0.000239917
0.000223024
9.87528e-05
8.34213e-05
0.000412505
-0.000338942
-0.000810696
0.000527756
-0.000581203
-0.00239301
0.000193232
-0.00374609
-0.000559977
-0.000371103
0.00108082
-0.000159239
-0.000264689
0.00048933
-0.000107785
-0.00011755
0.000360374
-7.46055e-05
3.98015e-05
0.000259899
-4.24931e-05
0.000185658
0.000187626
-2.06329e-05
0.000315607
0.000140747
-4.11835e-06
0.000427216
0.000111882
9.45398e-06
0.000522699
9.22267e-05
1.95702e-05
0.000604867
8.00155e-05
2.69341e-05
0.000678441
7.07909e-05
3.08306e-05
0.000748022
6.70676e-05
3.19638e-05
0.000821445
6.42229e-05
2.86638e-05
0.00090676
6.73221e-05
2.45665e-05
0.00101556
6.66001e-05
1.93514e-05
0.00115826
6.31823e-05
2.94566e-05
0.00128945
2.22063e-05
8.65229e-05
0.00135859
-0.000120235
0.000134508
0.00097311
-0.000661415
0.000236203
0.000231362
-0.00170173
5.04717e-05
-0.00278507
-0.00072965
0.00122738
-0.000146556
0.00187095
-0.000154239
0.00238054
-0.000149212
0.00277258
-0.000132145
0.00307215
-0.000111948
0.0033075
-9.45963e-05
0.00349694
-7.75635e-05
0.00365212
-6.29508e-05
0.0037814
-4.92602e-05
0.00388927
-3.70823e-05
0.00398433
-2.79921e-05
0.00406684
-1.82909e-05
0.00414749
-1.33275e-05
0.00422266
-8.56874e-06
0.00428614
-2.92436e-07
0.00430901
-6.63955e-07
0.00416598
2.27954e-05
0.0035189
-1.43415e-05
0.00190983
-9.26631e-05
-0.000875241
-4.01711e-06
4.32161e-06
-6.79807e-07
-1.28017e-05
9.22814e-06
-3.90148e-07
-2.28858e-05
1.05311e-05
-2.13385e-07
-3.30252e-05
1.05632e-05
-1.02086e-07
-4.28123e-05
1.01921e-05
-8.08385e-08
-5.20395e-05
9.6256e-06
-1.26722e-07
-6.05043e-05
8.86929e-06
-2.25986e-07
-6.79706e-05
7.88747e-06
-3.77046e-07
-7.41488e-05
6.64105e-06
-5.8199e-07
-7.8716e-05
5.08806e-06
-8.44612e-07
-8.13177e-05
3.19402e-06
-1.16645e-06
-8.159e-05
9.42142e-07
-1.54578e-06
-7.91691e-05
-1.65986e-06
-1.97366e-06
-7.37641e-05
-4.54588e-06
-2.42898e-06
-6.52154e-05
-7.59527e-06
-2.878e-06
-5.35752e-05
-1.06078e-05
-3.26972e-06
-3.92439e-05
-1.32455e-05
-3.52644e-06
-2.32659e-05
-1.48645e-05
-3.54991e-06
-8.13915e-06
-1.40219e-05
-3.26201e-06
-7.15248e-06
-2.00437e-06
-9.17657e-06
1.38491e-05
-1.55636e-06
-2.54296e-05
2.60699e-05
-1.43463e-06
-4.35211e-05
2.91989e-05
-1.23555e-06
-6.15059e-05
2.90858e-05
-1.04512e-06
-7.86615e-05
2.7855e-05
-9.39767e-07
-9.45656e-05
2.60255e-05
-9.01917e-07
-0.000108833
2.36436e-05
-9.20792e-07
-0.000121058
2.06527e-05
-9.98537e-07
-0.000130795
1.69779e-05
-1.14161e-06
-0.000137566
1.2544e-05
-1.35742e-06
-0.000140852
7.27937e-06
-1.65091e-06
-0.000140189
1.21566e-06
-2.02065e-06
-0.000135076
-5.68239e-06
-2.4692e-06
-0.000125151
-1.32133e-05
-2.95569e-06
-0.000110258
-2.10685e-05
-3.44537e-06
-9.05572e-05
-2.875e-05
-3.87324e-06
-6.67156e-05
-3.54306e-05
-4.13714e-06
-4.03466e-05
-3.95274e-05
-4.11452e-06
-1.5139e-05
-3.75524e-05
-3.70882e-06
-2.08898e-05
-2.07734e-06
-1.10532e-05
2.53247e-05
-2.03329e-06
-3.01345e-05
4.58657e-05
-2.02012e-06
-5.11884e-05
5.09556e-05
-1.81691e-06
-7.2016e-05
5.05678e-05
-1.58594e-06
-9.18151e-05
4.82695e-05
-1.43365e-06
-0.000110118
4.49246e-05
-1.34615e-06
-0.000126499
4.06273e-05
-1.31503e-06
-0.000140514
3.53037e-05
-1.34598e-06
-0.000151686
2.8845e-05
-1.44939e-06
-0.000159494
2.1139e-05
-1.63652e-06
-0.000163398
1.20967e-05
-1.91682e-06
-0.000162812
1.7023e-06
-2.29787e-06
-0.000157155
-1.00842e-05
-2.7648e-06
-0.000145985
-2.29296e-05
-3.29992e-06
-0.000129039
-3.63617e-05
-3.85837e-06
-0.0001064
-4.956e-05
-4.36364e-06
-7.87387e-05
-6.11301e-05
-4.691e-06
-4.78664e-05
-6.83625e-05
-4.68901e-06
-1.80981e-05
-6.53066e-05
-4.23975e-06
-3.73099e-05
-2.35843e-06
-1.17989e-05
3.76415e-05
-2.45076e-06
-3.22025e-05
6.71312e-05
-2.5454e-06
-5.46735e-05
7.42788e-05
-2.34628e-06
-7.69005e-05
7.3591e-05
-2.08835e-06
-9.80713e-05
7.01886e-05
-1.90346e-06
-0.000117726
6.53009e-05
-1.78127e-06
-0.00013545
5.90714e-05
-1.71641e-06
-0.000150804
5.14068e-05
-1.71825e-06
-0.000163303
4.21567e-05
-1.80161e-06
-0.000172404
3.11535e-05
-1.98308e-06
-0.000177498
1.82481e-05
-2.27716e-06
-0.000177942
3.38519e-06
-2.69249e-06
-0.000172985
-1.3578e-05
-3.25054e-06
-0.000161947
-3.22482e-05
-3.89907e-06
-0.000144321
-5.20037e-05
-4.59952e-06
-0.000119957
-7.16936e-05
-5.26073e-06
-8.94094e-05
-8.92454e-05
-5.72837e-06
-5.46548e-05
-0.000100555
-5.80437e-06
-2.0714e-05
-9.66863e-05
-5.32385e-06
-5.58977e-05
-3.06452e-06
-1.23579e-05
5.0637e-05
-2.85475e-06
-3.38838e-05
8.96971e-05
-3.05626e-06
-5.76126e-05
9.90409e-05
-2.86349e-06
-8.11311e-05
9.80789e-05
-2.58545e-06
-0.000103631
9.36012e-05
-2.37864e-06
-0.000124682
8.72287e-05
-2.23629e-06
-0.0001439
7.91589e-05
-2.1564e-06
-0.000160872
6.92755e-05
-2.15283e-06
-0.000175124
5.73729e-05
-2.246e-06
-0.000186091
4.32022e-05
-2.45949e-06
-0.0001931
2.65092e-05
-2.81646e-06
-0.000195349
7.11335e-06
-3.33854e-06
-0.000191919
-1.52465e-05
-4.04641e-06
-0.000181771
-4.02862e-05
-4.9021e-06
-0.000163982
-6.73083e-05
-5.86375e-06
-0.000137961
-9.48605e-05
-6.81847e-06
-0.000103959
-0.000120069
-7.56005e-06
-6.40972e-05
-0.000137004
-7.80634e-06
-2.44439e-05
-0.000132888
-7.29845e-06
-7.74846e-05
-4.4061e-06
-1.3014e-05
6.44332e-05
-3.30077e-06
-3.58514e-05
0.000113789
-3.61919e-06
-6.1063e-05
0.000125503
-3.43412e-06
-8.61113e-05
0.000124304
-3.13731e-06
-0.000110197
0.000118795
-2.91197e-06
-0.000132933
0.000111027
-2.75558e-06
-0.000153986
0.000101261
-2.67048e-06
-0.000172994
8.93581e-05
-2.67623e-06
-0.000189516
7.5047e-05
-2.80057e-06
-0.000202993
5.7968e-05
-3.07696e-06
-0.000212689
3.77075e-05
-3.54156e-06
-0.000217653
1.3878e-05
-4.2329e-06
-0.000216707
-1.39933e-05
-5.17952e-06
-0.000208346
-4.59934e-05
-6.37642e-06
-0.000191009
-8.1452e-05
-7.77125e-06
-0.000163362
-0.000118744
-9.22961e-06
-0.000125029
-0.000154103
-1.04703e-05
-7.81162e-05
-0.000179196
-1.10657e-05
-3.01978e-05
-0.000175963
-1.05663e-05
-0.000103685
-6.67351e-06
-1.38314e-05
7.92241e-05
-3.83697e-06
-3.82639e-05
0.000139738
-4.29592e-06
-6.52591e-05
0.000154012
-4.11868e-06
-9.21252e-05
0.000152595
-3.79771e-06
-0.000118077
0.000146088
-3.548e-06
-0.000142789
0.00013702
-3.37293e-06
-0.000166009
0.000125738
-3.281e-06
-0.000187458
0.000112087
-3.29945e-06
-0.000206773
9.57274e-05
-3.46608e-06
-0.000223441
7.61665e-05
-3.82821e-06
-0.000236714
5.27743e-05
-4.4415e-06
-0.000245504
2.48471e-05
-5.36901e-06
-0.000248378
-8.40737e-06
-6.66986e-06
-0.00024322
-4.78036e-05
-8.38808e-06
-0.000227565
-9.29674e-05
-1.04728e-05
-0.000198877
-0.000142408
-1.27781e-05
-0.00015555
-0.000191515
-1.492e-05
-9.91837e-05
-0.000228891
-1.62318e-05
-3.93465e-05
-0.000228833
-1.58647e-05
-0.000137293
-1.04497e-05
-1.48288e-05
9.52356e-05
-4.50605e-06
-4.11676e-05
0.00016792
-5.14173e-06
-7.02513e-05
0.000184935
-4.96953e-06
-9.91989e-05
0.000183274
-4.61064e-06
-0.000127248
0.000175759
-4.32001e-06
-0.000154161
0.000165471
-4.10958e-06
-0.000179798
0.000152869
-3.99652e-06
-0.000204014
0.00013781
-4.0184e-06
-0.000226587
0.000119897
-4.22648e-06
-0.000247133
9.84979e-05
-4.68731e-06
-0.000264978
7.27248e-05
-5.48494e-06
-0.000278977
4.14413e-05
-6.72352e-06
-0.000287548
3.4731e-06
-8.52451e-06
-0.000287823
-4.33685e-05
-1.10004e-05
-0.000276179
-9.92849e-05
-1.41529e-05
-0.000248235
-0.000163663
-1.78617e-05
-0.000200106
-0.000231486
-2.16235e-05
-0.000131748
-0.000287735
-2.44066e-05
-5.47712e-05
-0.00029565
-2.45292e-05
-0.000183724
-1.68998e-05
-1.60367e-05
0.000112742
-5.35777e-06
-4.46233e-05
0.000198769
-6.2203e-06
-7.60938e-05
0.000218657
-6.04514e-06
-0.00010734
0.000216629
-5.6228e-06
-0.000137636
0.000208016
-5.26017e-06
-0.000166859
0.000196532
-4.98157e-06
-0.000195028
0.000182798
-4.8162e-06
-0.000222192
0.000166722
-4.81494e-06
-0.000248357
0.000147887
-5.04617e-06
-0.000273386
0.000125554
-5.60175e-06
-0.000296846
9.85813e-05
-6.60487e-06
-0.000317778
6.53523e-05
-8.21041e-06
-0.000334309
2.38058e-05
-1.05889e-05
-0.000343447
-2.90815e-05
-1.41701e-05
-0.000339947
-9.6065e-05
-1.89636e-05
-0.000316863
-0.000177998
-2.49531e-05
-0.000266425
-0.000270794
-3.15915e-05
-0.000184671
-0.000355964
-3.73601e-05
-8.31888e-05
-0.000382266
-3.90118e-05
-0.000254979
-2.84893e-05
-1.75245e-05
0.000132113
-6.46069e-06
-4.87615e-05
0.000232808
-7.617e-06
-8.29182e-05
0.000255589
-7.42165e-06
-0.000116621
0.000252913
-6.89248e-06
-0.0001492
0.000242968
-6.40536e-06
-0.000180685
0.000230204
-6.00263e-06
-0.000211302
0.000215464
-5.72975e-06
-0.000241361
0.000198764
-5.65381e-06
-0.000271195
0.000179747
-5.86342e-06
-0.00030107
0.000157646
-6.48184e-06
-0.000331024
0.000131148
-7.68611e-06
-0.000360571
9.81914e-05
-9.72884e-06
-0.000388112
5.57234e-05
-1.29731e-05
-0.000410917
-2.35766e-07
-1.78702e-05
-0.000422343
-7.65201e-05
-2.49084e-05
-0.000412559
-0.000176754
-3.44143e-05
-0.000367944
-0.000300683
-4.60004e-05
-0.000276454
-0.000428637
-5.76607e-05
-0.000141363
-0.00049586
-6.37209e-05
-0.000379626
-5.05552e-05
-1.94346e-05
0.000153896
-7.91787e-06
-5.38407e-05
0.000270727
-9.45536e-06
-9.09998e-05
0.000296201
-9.20649e-06
-0.000127244
0.000292337
-8.49902e-06
-0.000161999
0.000280599
-7.80267e-06
-0.000195492
0.000266289
-7.18601e-06
-0.000228201
0.000250529
-6.71609e-06
-0.000260757
0.000233519
-6.47819e-06
-0.000293912
0.000215063
-6.58155e-06
-0.000328504
0.000194529
-7.18122e-06
-0.000365343
0.000170643
-8.51122e-06
-0.000404942
0.000141142
-1.093e-05
-0.000446966
0.000102242
-1.49575e-05
-0.000489144
4.81126e-05
-2.12613e-05
-0.000526223
-3.03229e-05
-3.13504e-05
-0.000545771
-0.000144351
-4.58765e-05
-0.000527043
-0.000301247
-6.51617e-05
-0.000442628
-0.000488622
-8.71605e-05
-0.000266445
-0.000643286
-0.000103487
-0.000626276
-9.20796e-05
-2.20395e-05
0.000178958
-9.89211e-06
-6.03359e-05
0.000313481
-1.19232e-05
-0.000100846
0.00034105
-1.15606e-05
-0.000139624
0.000335059
-1.0558e-05
-0.000176267
0.00032074
-9.51709e-06
-0.00021126
0.000304344
-8.54614e-06
-0.000245373
0.000287314
-7.74131e-06
-0.000279583
0.000270098
-7.20583e-06
-0.000315117
0.000252785
-7.06489e-06
-0.000353518
0.000235109
-7.49725e-06
-0.000396686
0.000216224
-8.78571e-06
-0.000446793
0.000194235
-1.13955e-05
-0.000505854
0.000165351
-1.60806e-05
-0.000574493
0.000122563
-2.39644e-05
-0.000650939
5.46281e-05
-3.63949e-05
-0.00072541
-5.68061e-05
-5.60051e-05
-0.000770201
-0.0002379
-8.37144e-05
-0.000725315
-0.000508396
-0.000117091
-0.000497104
-0.000844383
-0.00014627
-0.00111269
-0.000149244
-2.58403e-05
0.000208737
-1.26454e-05
-6.90677e-05
0.000362436
-1.52906e-05
-0.000113328
0.00039082
-1.46929e-05
-0.000154509
0.000381174
-1.32027e-05
-0.000192515
0.000363022
-1.16153e-05
-0.000228192
0.000343634
-1.00883e-05
-0.000262635
0.000324753
-8.7504e-06
-0.000297141
0.000307068
-7.71962e-06
-0.000333341
0.000291041
-7.12655e-06
-0.000373454
0.000277025
-7.14723e-06
-0.000420594
0.00026511
-8.06188e-06
-0.000479109
0.000254694
-1.03485e-05
-0.00055485
0.000243578
-1.48121e-05
-0.000654826
0.00022604
-2.2656e-05
-0.000784928
0.000189895
-3.52989e-05
-0.000941949
0.000107374
-5.33543e-05
-0.00108664
-8.49211e-05
-7.62105e-05
-0.001095
-0.000495783
-9.46483e-05
-0.000780626
-0.00116154
-0.000108105
-0.00191355
-0.000154458
-3.20924e-05
0.000245996
-1.66929e-05
-8.17775e-05
0.000419516
-2.02384e-05
-0.000129904
0.000445954
-1.92714e-05
-0.00017284
0.000430284
-1.69793e-05
-0.000211329
0.000406738
-1.44378e-05
-0.000246656
0.000383218
-1.19451e-05
-0.000280112
0.00036153
-9.71174e-06
-0.000313139
0.000342564
-7.87907e-06
-0.000347615
0.000327242
-6.55277e-06
-0.0003862
0.000316702
-5.8547e-06
-0.000432994
0.000312452
-5.96781e-06
-0.000494453
0.000316179
-7.17583e-06
-0.000580747
0.00032929
-9.87739e-06
-0.000706066
0.000349825
-1.4077e-05
-0.000885192
0.000365335
-1.7447e-05
-0.00111324
0.000325944
-1.14266e-05
-0.00132993
0.000106396
2.21862e-05
-0.00135255
-0.000521781
9.7286e-05
-0.000924162
-0.0016275
0.000135732
-0.00285726
-5.64919e-05
-4.00542e-05
0.000292799
-2.24817e-05
-9.82244e-05
0.00048748
-2.64083e-05
-0.000151609
0.000508529
-2.45722e-05
-0.00019717
0.00048385
-2.08839e-05
-0.000235551
0.00045173
-1.70739e-05
-0.000268896
0.000421725
-1.33912e-05
-0.000299149
0.000395532
-1.00509e-05
-0.000327988
0.000373822
-7.17291e-06
-0.000357143
0.000357581
-4.82153e-06
-0.000388904
0.000348474
-3.0129e-06
-0.000427309
0.000349617
-1.65434e-06
-0.000479276
0.000365293
-4.13918e-07
-0.00055734
0.000401913
1.85329e-06
-0.000678977
0.000461286
9.30114e-06
-0.000863327
0.000529751
3.48501e-05
-0.00110083
0.000524093
0.000107449
-0.00134133
0.000271152
0.000264926
-0.00136482
-0.000597433
0.000466219
-0.000878599
-0.00212399
0.000448761
-0.00369088
-3.60598e-05
-7.27231e-05
0.000373868
-3.21176e-05
-0.000137293
0.000563878
-3.84203e-05
-0.000187564
0.000569978
-3.51892e-05
-0.000226762
0.000532753
-2.94871e-05
-0.000260175
0.000493113
-2.30247e-05
-0.000289632
0.000457261
-1.67414e-05
-0.000316069
0.000426137
-1.10559e-05
-0.000339962
0.000400027
-6.16909e-06
-0.000362032
0.00038016
-2.09227e-06
-0.000383167
0.000368343
1.2791e-06
-0.000405806
0.00036885
4.44149e-06
-0.00043409
0.000387145
8.71791e-06
-0.000478471
0.000434622
1.78875e-05
-0.000550931
0.000512427
4.23868e-05
-0.000675471
0.000615706
0.000108084
-0.000843123
0.000624239
0.000262514
-0.00105549
0.000375157
0.000535227
-0.00111526
-0.000642221
0.000763251
-0.000705901
-0.00247177
0.000495704
-0.00432132
-0.000207175
-5.30731e-05
0.000436735
-4.88021e-05
-0.000148929
0.000676427
-5.24547e-05
-0.000220386
0.000656794
-4.57126e-05
-0.000270348
0.000596404
-3.48609e-05
-0.000304342
0.000538218
-2.50688e-05
-0.000327339
0.00048855
-1.58509e-05
-0.000342876
0.00044708
-7.70179e-06
-0.000352717
0.000412488
-6.9651e-07
-0.000357575
0.000385288
4.82476e-06
-0.00035674
0.000365203
9.5107e-06
-0.000349973
0.00035664
1.40975e-05
-0.000334859
0.000362173
2.07067e-05
-0.000314451
0.000397115
3.51146e-05
-0.000287295
0.000456569
7.14609e-05
-0.000279179
0.000559111
0.000160648
-0.000311017
0.00058452
0.000345808
-0.000419754
0.000390154
0.0006353
-0.000539006
-0.000587231
0.000767622
-0.000325277
-0.00259046
0.000298072
-0.00462524
-0.000397895
-0.000197704
0.000643604
-5.97931e-05
-0.000246364
0.000739844
-7.37149e-05
-0.000287372
0.000713524
-6.82432e-05
-0.00032007
0.000643519
-5.3742e-05
-0.000329115
0.00055999
-3.65371e-05
-0.000321626
0.000491314
-2.05883e-05
-0.000303594
0.000436046
-6.95911e-06
-0.000276757
0.000389659
3.86895e-06
-0.000244149
0.000353679
1.21361e-05
-0.000203739
0.000322597
1.82191e-05
-0.000156475
0.000303506
2.27955e-05
-9.50734e-05
0.000290235
2.77754e-05
-1.41659e-05
0.000299293
3.7857e-05
9.01945e-05
0.000322754
6.62234e-05
0.000236902
0.000372938
0.000132205
0.000385951
0.000384807
0.000273689
0.000549667
0.000189716
0.000449226
0.000479093
-0.000528613
0.000539713
0.000357766
-0.00238916
0.000113257
-0.0043259
-0.00050155
-0.000664089
0.00129322
-0.000144764
-0.000626301
0.000717529
-0.000123258
-0.000492234
0.00059843
-9.3578e-05
-0.000306112
0.000480164
-6.526e-05
-0.00011154
0.000388073
-4.32885e-05
7.86112e-05
0.000320855
-2.38109e-05
0.000257679
0.000273194
-6.76198e-06
0.000424267
0.000235687
6.95396e-06
0.000578521
0.000208349
1.80106e-05
0.000721799
0.000184065
2.60859e-05
0.000857293
0.000168818
3.11579e-05
0.000988967
0.000154732
3.24928e-05
0.00112947
0.000149615
3.37388e-05
0.00128733
0.000148953
3.52954e-05
0.00150505
0.000137794
4.68759e-05
0.00175667
0.000110815
0.000108901
0.0020161
-6.6939e-05
0.00013173
0.00203444
-0.000493474
0.000182726
0.00138437
-0.00170065
1.20358e-05
-0.00311408
-0.0005571
0.00127136
-0.000124701
0.00197578
-0.000141123
0.00256708
-0.000142086
0.00304863
-0.000133531
0.00344522
-0.000120469
0.00377882
-0.000107337
0.00406774
-9.32878e-05
0.00431957
-7.90961e-05
0.00454465
-6.59947e-05
0.00474368
-5.20407e-05
0.00492529
-4.0794e-05
0.00509157
-2.98361e-05
0.00524697
-1.91111e-05
0.00540294
-1.55884e-05
0.00554116
-7.11339e-07
0.00565705
-5.74085e-06
0.0055948
1.81028e-05
0.00511678
-2.97946e-05
0.00340681
-8.33406e-05
-0.000582515
-4.5256e-06
4.65962e-06
-8.13831e-07
-1.44275e-05
1.03249e-05
-8.13148e-07
-2.57634e-05
1.18343e-05
-7.11822e-07
-3.70888e-05
1.18434e-05
-6.20066e-07
-4.79505e-05
1.13689e-05
-5.87946e-07
-5.81273e-05
1.06609e-05
-6.10808e-07
-6.74008e-05
9.73176e-06