/*--------------------------------*- C++ -*----------------------------------*\
  =========                 |
  \\      /  F ield         | OpenFOAM: The Open Source CFD Toolbox
   \\    /   O peration     | Website:  https://openfoam.org
    \\  /    A nd           | Version:  10
     \\/     M anipulation  |
\*---------------------------------------------------------------------------*/
FoamFile
{
    format      ascii;
    class       volScalarField;
    location    "2.525";
    object      p;
}
// * * * * * * * * * * * * * * * * * * * * * * * * * * * * * * * * * * * * * //

dimensions      [0 2 -2 0 0 0 0];

internalField   nonuniform List<scalar> 
8000
(
7.64494e-07
-9.2871e-06
3.49767e-05
0.000114402
0.000232279
0.00038778
0.000578892
0.000802727
0.00105529
0.00133137
0.00162448
0.00192673
0.00222892
0.00252075
0.0027911
0.00302865
0.0032224
0.00336281
0.00344812
0.00345016
9.70764e-06
-1.87707e-06
4.20222e-05
0.000119761
0.000235365
0.00038827
0.000576688
0.000797947
0.00104826
0.00132262
0.00161457
0.00191634
0.00221892
0.00251188
0.00278395
0.00302358
0.00321946
0.00336181
0.00344935
0.00345083
-3.99281e-05
-5.40749e-05
-1.05073e-05
6.71651e-05
0.000183416
0.00033786
0.000528931
0.000754202
0.00101011
0.0012918
0.00159302
0.00190612
0.00222153
0.0025285
0.00281514
0.00306898
0.00327755
0.00342974
0.00352382
0.00352462
-0.00013142
-0.00014795
-0.000104431
-2.61972e-05
9.18428e-05
0.000249636
0.00044598
0.000678825
0.000944956
0.00123979
0.00155719
0.00188945
0.00222695
0.00255813
0.00286995
0.0031484
0.00337909
0.00354867
0.00365439
0.00365616
-0.000270126
-0.00028952
-0.000245827
-0.000166379
-4.5286e-05
0.000117859
0.000322352
0.000566658
0.000848043
0.00116233
0.00150363
0.00186419
0.00223414
0.00260109
0.00295049
0.00326605
0.00353049
0.00372695
0.00385082
0.00385502
-0.000459062
-0.000482116
-0.000438214
-0.000357204
-0.000232161
-6.20748e-05
0.000153015
0.000412264
0.000713604
0.00105343
0.00142628
0.00182456
0.00223823
0.00265394
0.00305532
0.0034231
0.00373588
0.00397159
0.00412239
0.00413111
-0.00070178
-0.000729547
-0.000685685
-0.000603208
-0.000473864
-0.000295866
-6.8386e-05
0.000208643
0.000534049
0.000905069
0.00131694
0.00176246
0.00223182
0.00271079
0.00318104
0.0036197
0.00399975
0.0042915
0.00448164
0.00449837
-0.00100278
-0.00103663
-0.000993418
-0.000910129
-0.000776822
-0.000590728
-0.000349913
-5.31414e-05
0.000299594
0.000706691
0.00116447
0.00166658
0.00220411
0.00276233
0.00332126
0.00385405
0.00432644
0.00469787
0.00494556
0.00497664
-0.00136757
-0.00140923
-0.00136771
-0.00128493
-0.00114883
-0.000955426
-0.000701389
-0.000384043
-1.8991e-06
0.000444972
0.000954458
0.00152164
0.00213966
0.00279418
0.00346453
0.0041202
0.00471853
0.00520376
0.00553657
0.00559411
-0.00180282
-0.00185446
-0.00181613
-0.00173594
-0.00159919
-0.00140036
-0.00113445
-0.000797067
-0.000384967
0.000103672
0.00066883
0.00130745
0.0020171
0.00278464
0.00359125
0.00440454
0.00517334
0.00582264
0.00628353
0.00639322
-0.00231683
-0.00238104
-0.0023478
-0.00227306
-0.00213879
-0.0019376
-0.0016625
-0.00130713
-0.000866356
-0.000336205
0.000286231
0.00100306
0.00180803
0.00270194
0.00366929
0.00467976
0.00567627
0.00656429
0.00722125
0.00743784
-0.00292039
-0.00299994
-0.00297388
-0.00290805
-0.00278034
-0.00258095
-0.00230051
-0.00193064
-0.00146442
-0.000896014
-0.000220071
0.000568545
0.00147345
0.00250092
0.00364785
0.0048954
0.00618914
0.00742366
0.00838703
0.00882671
-0.00362866
-0.00372542
-0.00370828
-0.00365504
-0.00353858
-0.00334586
-0.00306467
-0.00268464
-0.00219759
-0.00159668
-0.000874901
-2.37171e-05
0.000968257
0.00212245
0.00345136
0.00496445
0.00662933
0.00835747
0.00980532
0.0107145
-0.00446842
-0.00457925
-0.00456984
-0.00453157
-0.0044308
-0.00424941
-0.00397169
-0.00358543
-0.00308224
-0.00245593
-0.00169971
-0.000802211
0.000257865
0.00150423
0.00297512
0.00474349
0.00683078
0.00923374
0.0114165
0.0133883
-0.00545848
-0.00558374
-0.00558095
-0.00555929
-0.00547704
-0.00530937
-0.00503701
-0.00464588
-0.00412866
-0.00348281
-0.00270663
-0.00179552
-0.000736849
0.000507957
0.00202799
0.0039709
0.00644568
0.00973915
0.0130233
0.0171531
-0.00680094
-0.00678571
-0.00675777
-0.00673308
-0.00667513
-0.00653199
-0.00627026
-0.00587198
-0.00533579
-0.00466744
-0.00387497
-0.0029591
-0.00190678
-0.000671721
0.000822814
0.00278796
0.00534275
0.00939122
0.0137638
0.0217859
-0.00814945
-0.00844613
-0.00835534
-0.00837188
-0.00828805
-0.00808631
-0.00775843
-0.00729785
-0.00670926
-0.00600501
-0.00520889
-0.0043445
-0.00344258
-0.00250864
-0.00150442
-0.000260376
0.00131414
0.00631238
0.0114874
0.0266336
-0.0119818
-0.00953482
-0.00944483
-0.00925322
-0.00925335
-0.00918257
-0.00897425
-0.00858205
-0.0080096
-0.00728277
-0.00645708
-0.00557389
-0.00471806
-0.00392249
-0.00332773
-0.00266759
-0.00223504
0.00272521
0.00824467
0.0334596
-0.0126202
-0.013833
-0.0130397
-0.013061
-0.0126873
-0.0121396
-0.0114726
-0.0106822
-0.00980165
-0.00884401
-0.00788489
-0.00695927
-0.00623524
-0.00582065
-0.00610578
-0.00660683
-0.00957057
-0.00395969
-0.000667498
0.0482333
-0.0358217
-0.0115436
-0.0111404
-0.0107263
-0.0105726
-0.0105876
-0.0104803
-0.0101233
-0.0095477
-0.00875796
-0.00793973
-0.00700123
-0.00633891
-0.00559025
-0.00542385
-0.00410724
-0.00184051
0.0132644
0.0427561
0.129694
4.06973e-06
-1.44253e-05
2.89237e-05
0.000107877
0.00022607
0.000382311
0.000574438
0.000799522
0.00105359
0.00133141
0.00162636
0.00193061
0.00223491
0.00252887
0.00280127
0.00304059
0.00323553
0.00337592
0.00346033
0.00345286
2.11356e-05
1.42822e-06
4.45768e-05
0.000121364
0.000236517
0.000389193
0.000577496
0.000798753
0.00104919
0.00132381
0.00161621
0.00191858
0.00222187
0.00251565
0.00278858
0.00302895
0.00322519
0.00336693
0.00345355
0.00344486
-2.64347e-05
-4.9383e-05
-6.57701e-06
7.0033e-05
0.000185703
0.000339771
0.000530573
0.000755691
0.00101159
0.00129342
0.00159495
0.00190852
0.00222456
0.00253231
0.0028198
0.0030744
0.00328331
0.00343482
0.00352788
0.00351734
-0.000115709
-0.00014165
-9.89129e-05
-2.18533e-05
9.54898e-05
0.000252776
0.00044871
0.000681256
0.00094723
0.00124208
0.00155968
0.00189234
0.0022304
0.00256233
0.00287499
0.00315422
0.00338526
0.00355406
0.00365861
0.00364775
-0.000252323
-0.000281858
-0.000238956
-0.000160763
-4.04336e-05
0.000122141
0.000326164
0.000570117
0.000851301
0.00116557
0.00150706
0.00186806
0.00223864
0.00260643
0.0029568
0.0032733
0.0035382
0.00373379
0.00385628
0.00384607
-0.000438854
-0.000472969
-0.000429855
-0.000350178
-0.000225951
-5.64766e-05
0.000158112
0.000416992
0.00071813
0.00105796
0.00143106
0.00182992
0.00224439
0.00266116
0.00306379
0.00343282
0.0037463
0.00398111
0.00413027
0.00412211
-0.000678548
-0.000718523
-0.000675435
-0.000594387
-0.00046593
-0.000288598
-6.16562e-05
0.000214992
0.000540217
0.000911306
0.00132355
0.00176987
0.0022403
0.0027207
0.00319269
0.00363314
0.0040144
0.00430537
0.00449365
0.00449048
-0.000975667
-0.00102313
-0.000980676
-0.000898954
-0.000766651
-0.00058132
-0.000341112
-4.47505e-05
0.000307826
0.000715084
0.00117343
0.00167667
0.00221567
0.00277594
0.00333744
0.00387301
0.0043476
0.00471875
0.00496439
0.00497146
-0.00133541
-0.00139241
-0.00135164
-0.00127064
-0.00113576
-0.000943293
-0.000690002
-0.000373144
8.84155e-06
0.000455975
0.000966282
0.00153512
0.00215519
0.00281272
0.003487
0.00414724
0.00474965
0.00523599
0.00556691
0.005596
-0.001764
-0.00183312
-0.00179556
-0.00171752
-0.00158235
-0.0013848
-0.00111991
-0.000783192
-0.000371311
0.000117667
0.000683936
0.00132522
0.00203748
0.00280954
0.00362234
0.00444327
0.0052198
0.00587348
0.00633337
0.00641001
-0.00226902
-0.00235339
-0.00232106
-0.00224911
-0.00211709
-0.00191782
-0.00164424
-0.0012899
-0.00084952
-0.000319045
0.000304427
0.00102214
0.00183363
0.00273464
0.00371172
0.004735
0.00574604
0.00664579
0.00730466
0.00748767
-0.00285997
-0.00296326
-0.00293851
-0.00287665
-0.00275243
-0.00255611
-0.00227813
-0.00190993
-0.00144446
-0.000875684
-0.000198061
0.000594113
0.00150552
0.00254268
0.00370434
0.00497286
0.00629307
0.00755534
0.00852834
0.00895516
-0.00354951
-0.00367508
-0.00366037
-0.00361345
-0.00350285
-0.00331528
-0.00303822
-0.00266104
-0.00217539
-0.00157418
-0.000849799
7.34479e-06
0.00100816
0.0021732
0.00352311
0.00506853
0.0067785
0.00856436
0.0100455
0.0110259
-0.00436004
-0.00450783
-0.00450314
-0.00447588
-0.00438555
-0.00421323
-0.0039426
-0.00356117
-0.00306061
-0.00243457
-0.00167571
-0.000772212
0.000297279
0.00155131
0.00305433
0.00486719
0.00702111
0.00952798
0.0118042
0.0141333
-0.00529379
-0.00547858
-0.00548649
-0.00548665
-0.00542328
-0.00527111
-0.00501043
-0.00462725
-0.00411486
-0.00347036
-0.00269254
-0.00177681
-0.000708739
0.000551387
0.00211358
0.00408317
0.00662978
0.0100794
0.013511
0.0185789
-0.00654369
-0.00658647
-0.00659482
-0.00661296
-0.00659831
-0.00649164
-0.0062562
-0.00587495
-0.00534702
-0.00468055
-0.00388517
-0.00296197
-0.00190053
-0.000657077
0.000862435
0.00275589
0.00522789
0.00931268
0.0134734
0.0232808
-0.00766014
-0.00823052
-0.00817099
-0.0082964
-0.00827668
-0.00812302
-0.0078224
-0.00737531
-0.00679029
-0.00608239
-0.00527985
-0.00440854
-0.00350738
-0.00259122
-0.00170595
-0.000675264
0.000323606
0.00468953
0.00835947
0.0264277
-0.0111434
-0.00890038
-0.00898751
-0.00898064
-0.00915761
-0.00921617
-0.00908984
-0.0087411
-0.00818469
-0.00745153
-0.00661082
-0.00570383
-0.00484523
-0.00409877
-0.00375212
-0.00367223
-0.00494453
-0.00154042
0.0014093
0.0314644
-0.00976164
-0.012821
-0.0125772
-0.0132056
-0.0131292
-0.0127588
-0.0121273
-0.0113145
-0.0103731
-0.00932721
-0.00828725
-0.00728491
-0.00651319
-0.00613673
-0.00669774
-0.00785526
-0.0129064
-0.00979681
-0.00493582
0.0488238
-0.0329625
-0.00951213
-0.00970979
-0.0100511
-0.0103648
-0.0106195
-0.0106819
-0.0103983
-0.00985592
-0.00902593
-0.00820821
-0.0071818
-0.00658798
-0.00582665
-0.00604283
-0.00523259
-0.00352368
0.0122596
0.0518205
0.151682
7.82646e-06
-1.30265e-05
2.97387e-05
0.000108168
0.000226166
0.00038244
0.000574778
0.000800227
0.00105474
0.00133311
0.00162879
0.00193403
0.00223934
0.00253431
0.00280765
0.00304773
0.00324309
0.00338334
0.00346727
0.00345689
2.76079e-05
5.28799e-06
4.7884e-05
0.000124013
0.000238747
0.00039116
0.000579323
0.000800555
0.00105108
0.00132588
0.00161857
0.00192149
0.0022254
0.00251983
0.00279337
0.00303423
0.00323067
0.00337214
0.0034583
0.00344695
-1.87441e-05
-4.45044e-05
-2.28093e-06
7.35812e-05
0.000188751
0.000342466
0.000533034
0.000758037
0.00101394
0.00129594
0.00159778
0.00191176
0.00222833
0.00253671
0.00282483
0.00307994
0.00328908
0.00344029
0.00353286
0.00351931
-0.000106475
-0.000135443
-9.33225e-05
-1.70972e-05
9.96458e-05
0.000256472
0.000452061
0.000684386
0.000950282
0.00124523
0.00156314
0.00189611
0.00223468
0.00256725
0.00288059
0.00316041
0.00339173
0.00356023
0.00366426
0.00365009
-0.000241414
-0.000274244
-0.000232005
-0.000154737
-3.5096e-05
0.000126929
0.000330518
0.000574171
0.000855211
0.00116952
0.00151124
0.00187267
0.00224386
0.00261241
0.00296362
0.00328089
0.00354623
0.00374159
0.00386355
0.00384969
-0.000425934
-0.000463683
-0.000421289
-0.000342649
-0.000219216
-5.03934e-05
0.000163669
0.000422172
0.000723114
0.00106296
0.00143631
0.00183572
0.00225096
0.00266873
0.0030725
0.00344263
0.00375688
0.00399161
0.00414029
0.00412807
-0.000663081
-0.000707112
-0.000664824
-0.000584966
-0.000457454
-0.000280919
-5.46334e-05
0.000221534
0.0005465
0.000917594
0.00133015
0.00177717
0.00224863
0.00273041
0.00320403
0.00364617
0.00402877
0.00432005
0.00450795
0.00449961
-0.000956893
-0.00100894
-0.000967403
-0.0008871
-0.000755971
-0.000571666
-0.00033232
-3.66038e-05
0.000315606
0.000722841
0.00118158
0.00168573
0.00222611
0.00278833
0.00335222
0.00389044
0.00436741
0.00473969
0.00498542
0.00498633
-0.00131226
-0.00137451
-0.00133484
-0.00125562
-0.00112228
-0.000931212
-0.00067912
-0.000363183
1.82433e-05
0.000465269
0.000976029
0.00154602
0.00216796
0.00282823
0.00350608
0.0041705
0.00477708
0.0052662
0.0055983
0.00562015
-0.00173496
-0.00181018
-0.00177404
-0.00169834
-0.00156532
-0.00136977
-0.00110664
-0.0007713
-0.00036032
0.00012835
0.000695042
0.00133772
0.00205246
0.00282832
0.00364634
0.00447382
0.00525752
0.00591721
0.00638065
0.00645028
-0.00223186
-0.00232346
-0.00229311
-0.00222442
-0.00209556
-0.00189929
-0.00162837
-0.00127615
-0.000837255
-0.000307487
0.000316114
0.00103485
0.00184997
0.00275617
0.00374065
0.00477385
0.00579684
0.00670862
0.00737582
0.00755656
-0.00281132
-0.00292341
-0.00290161
-0.00284459
-0.00272521
-0.00253353
-0.00225967
-0.00189481
-0.00143171
-0.000864254
-0.000186891
0.000604951
0.00152166
0.00256517
0.00373663
0.00501937
0.00635856
0.00764333
0.00863418
0.00907502
-0.00348404
-0.0036207
-0.00361071
-0.00357138
-0.00346847
-0.00328826
-0.00301768
-0.00264573
-0.00216387
-0.00156487
-0.000841019
1.89475e-05
0.00102111
0.0021924
0.00355403
0.00511795
0.00685573
0.00868034
0.0101976
0.0112346
-0.004269
-0.00443158
-0.00443476
-0.00441994
-0.00434222
-0.00418178
-0.00392143
-0.00354822
-0.0030535
-0.00243112
-0.00167436
-0.000770869
0.000298861
0.00155728
0.00307269
0.00490496
0.0070936
0.00966026
0.0120078
0.0145001
-0.00516236
-0.0053696
-0.00539074
-0.00541223
-0.00536972
-0.00523661
-0.00499207
-0.0046216
-0.00411766
-0.00347871
-0.00270437
-0.00179132
-0.000726651
0.000529979
0.00210123
0.00407573
0.00664829
0.0101809
0.0137259
0.0191322
-0.00634635
-0.00641391
-0.00644769
-0.00650135
-0.00652434
-0.0064518
-0.00624442
-0.00588335
-0.00536849
-0.00470926
-0.00391766
-0.00299708
-0.00194009
-0.000706901
0.000804479
0.00265931
0.00508462
0.00919877
0.013393
0.0237569
-0.00734966
-0.00799517
-0.0079726
-0.00816953
-0.00820909
-0.00810607
-0.00784491
-0.00742357
-0.00685329
-0.00615198
-0.00535233
-0.00448414
-0.00359292
-0.00269815
-0.00188694
-0.000983576
-0.000247976
0.00387339
0.0073809
0.0262609
-0.0107055
-0.00852449
-0.00866233
-0.00875069
-0.0090325
-0.00917889
-0.00912123
-0.00881833
-0.00828795
-0.00756436
-0.00672601
-0.00581813
-0.00497345
-0.00427094
-0.00406605
-0.0042412
-0.00613265
-0.00333524
-0.000180014
0.030928
-0.00876653
-0.0121084
-0.0120462
-0.0128974
-0.0130248
-0.0128227
-0.0123018
-0.0115399
-0.0106156
-0.00955802
-0.00849904
-0.00747656
-0.00670647
-0.00637883
-0.00711392
-0.0086058
-0.014402
-0.0118786
-0.00478799
0.0502409
-0.0320761
-0.0087035
-0.00903576
-0.00962134
-0.0101624
-0.0105803
-0.010736
-0.0105206
-0.0100117
-0.00917719
-0.00836052
-0.0073161
-0.00676477
-0.00605679
-0.00645047
-0.00582171
-0.00394413
0.0125661
0.0566319
0.159873
1.18038e-05
-1.05816e-05
3.1648e-05
0.000109597
0.000227347
0.000383555
0.000575978
0.000801646
0.00105652
0.00133535
0.00163154
0.00193758
0.00224371
0.00253949
0.00281356
0.00305423
0.00324988
0.00339
0.00347356
0.00346151
3.32183e-05
9.4346e-06
5.14951e-05
0.000127045
0.000241384
0.000393545
0.00058158
0.000802801
0.00105343
0.00132837
0.00162083
0.00192482
0.0022294
0.00252445
0.00279856
0.00303986
0.00323648
0.00337773
0.0034635
0.00345027
-1.20511e-05
-3.93713e-05
2.28891e-06
7.75128e-05
0.000192212
0.000345592
0.000535946
0.000760857
0.00101681
0.00129902
0.00160142
0.00191558
0.00223264
0.0025416
0.0028303
0.00308588
0.00329524
0.00344623
0.00353839
0.00352279
-9.8379e-05
-0.000129011
-8.75026e-05
-1.19989e-05
0.000104182
0.000260573
0.000455844
0.000687979
0.000953839
0.00124897
0.00156754
0.00190053
0.00223956
0.00257275
0.00288674
0.00316711
0.00339873
0.00356705
0.00367067
0.00365423
-0.00023172
-0.000266345
-0.00022478
-0.000148331
-2.93546e-05
0.00013213
0.0003353
0.000578671
0.000859597
0.00117399
0.00151603
0.00187785
0.00224964
0.00261897
0.00297101
0.00328905
0.00355487
0.00375015
0.00387174
0.00385531
-0.000414293
-0.000454003
-0.000412367
-0.000334671
-0.000212034
-4.38828e-05
0.000169638
0.000427756
0.000728503
0.00106838
0.001442
0.00184196
0.00225801
0.00267681
0.00308174
0.00345301
0.0037681
0.00400301
0.00415145
0.00413627
-0.000648966
-0.000695168
-0.000653757
-0.000575023
-0.000448491
-0.000272814
-4.72409e-05
0.0002284
0.000553072
0.000924153
0.00133703
0.00178473
0.00225726
0.00274046
0.00321576
0.00365965
0.00404373
0.0043357
0.00452371
0.00451222
-0.000939557
-0.000994046
-0.000953564
-0.000874647
-0.00074478
-0.000561614
-0.00032324
-2.82669e-05
0.000323495
0.000730647
0.00118974
0.00169475
0.00223655
0.00280075
0.00336711
0.00390807
0.00438761
0.00476155
0.00500809
0.00500573
-0.00129066
-0.0013557
-0.00131736
-0.00123993
-0.00110829
-0.000918797
-0.000668084
-0.000353233
2.74885e-05
0.000474285
0.000985392
0.00155643
0.00218024
0.00284325
0.00352469
0.00419337
0.00480434
0.00529695
0.00563128
0.00565028
-0.00170761
-0.00178608
-0.00175171
-0.00167843
-0.0015478
-0.00135452
-0.0010934
-0.000759699
-0.000349844
0.000138315
0.000705234
0.00134907
0.00206622
0.0028458
0.00366893
0.00450288
0.0052939
0.00596041
0.00642889
0.00649764
-0.00219663
-0.00229212
-0.00226423
-0.00219898
-0.0020736
-0.00188069
-0.0016128
-0.00126306
-0.000825947
-0.000297175
0.000326309
0.00104603
0.00186421
0.00277522
0.00376666
0.00480934
0.0058441
0.00676863
0.0074463
0.00763201
-0.00276501
-0.00288192
-0.00286374
-0.0028118
-0.00269768
-0.00251109
-0.00224182
-0.00188073
-0.00142042
-0.000854664
-0.000177922
0.000614358
0.00153459
0.00258362
0.00376381
0.00505954
0.00641672
0.00772413
0.00873624
0.00919686
-0.00342184
-0.00356471
-0.0035603
-0.00352876
-0.00343398
-0.00326162
-0.00299803
-0.00263181
-0.0021542
-0.00155789
-0.000834897
2.62566e-05
0.00102999
0.00220585
0.00357694
0.00515654
0.00691971
0.00878192
0.0103408
0.011435
-0.00418308
-0.00435444
-0.00436645
-0.00436399
-0.00429909
-0.00415089
-0.00390127
-0.00353671
-0.00304848
-0.00243061
-0.0016763
-0.0007736
0.000296838
0.00155752
0.00307949
0.00492661
0.00714554
0.00976808
0.0121941
0.0148342
-0.00504108
-0.00526175
-0.00529699
-0.00533865
-0.00531654
-0.00520243
-0.00497416
-0.00461652
-0.0041224
-0.00349043
-0.00272104
-0.00181187
-0.000750792
0.000504109
0.00206914
0.00404344
0.00663621
0.0102431
0.0139206
0.0196411
-0.00616906
-0.00625368
-0.00631097
-0.00639672
-0.00645367
-0.00641277
-0.00623217
-0.00589125
-0.00539061
-0.00474085
-0.00395611
-0.00304218
-0.00199501
-0.000772844
0.000708768
0.00252359
0.00491917
0.00906893
0.013405
0.0243082
-0.00708891
-0.0077856
-0.00779601
-0.00805238
-0.00814276
-0.00808451
-0.00785749
-0.00746066
-0.00690679
-0.00621582
-0.00542418
-0.00456555
-0.00369251
-0.00283751
-0.00208841
-0.00129844
-0.000751044
0.00320219
0.00673919
0.026486
-0.0103249
-0.00818624
-0.00837806
-0.00854563
-0.00891034
-0.00913218
-0.00913419
-0.00887342
-0.00836949
-0.00765968
-0.00682984
-0.00593075
-0.00511126
-0.00446622
-0.00438162
-0.00477239
-0.00711797
-0.00471596
-0.00146779
0.0309193
-0.00814406
-0.0116692
-0.0116737
-0.0126884
-0.0129377
-0.0128424
-0.0123973
-0.0116807
-0.0107786
-0.00972395
-0.00866252
-0.00763731
-0.00688417
-0.00661359
-0.00749106
-0.00927899
-0.0156156
-0.0135235
-0.00561423
0.0516578
-0.031301
-0.00798876
-0.00844773
-0.00921371
-0.00993479
-0.0104979
-0.0107608
-0.0106091
-0.010137
-0.00931236
-0.00850413
-0.00745777
-0.00693724
-0.00628116
-0.00679064
-0.00631369
-0.00451644
0.0122494
0.0579347
0.164722
1.57547e-05
-7.17923e-06
3.47159e-05
0.000112306
0.000229793
0.000385839
0.000578202
0.000803915
0.00105895
0.00133804
0.00163462
0.00194109
0.00224774
0.00254405
0.00281863
0.00305969
0.00325556
0.00339565
0.00347906
0.0034664
3.79059e-05
1.35274e-05
5.52391e-05
0.000130386
0.000244404
0.000396335
0.000584235
0.000805421
0.00105612
0.00133127
0.00162428
0.00192838
0.00223337
0.00252889
0.00280346
0.00304512
0.00324195
0.00338316
0.00346879
0.00345494
-6.57938e-06
-3.45372e-05
6.74692e-06
8.15224e-05
0.000195848
0.000348939
0.000539096
0.000763912
0.00101988
0.00130221
0.00160477
0.00191939
0.00223691
0.00254638
0.00283558
0.00309157
0.00330117
0.00345217
0.0035442
0.00352794
-9.17927e-05
-0.000123114
-8.20256e-05
-7.03825e-06
0.000108692
0.00026471
0.0004597
0.000691662
0.00095747
0.00125266
0.0015713
0.00190482
0.00224436
0.00257812
0.0028927
0.00317361
0.00340558
0.00357397
0.00367752
0.00366037
-0.000223753
-0.000259135
-0.00021805
-0.000142207
-2.37787e-05
0.00013723
0.000340019
0.00058313
0.000863937
0.00117838
0.00152063
0.00188287
0.00225524
0.00262528
0.00297811
0.00329689
0.00356327
0.00375879
0.00388042
0.00386324
-0.000404589
-0.000445144
-0.000404072
-0.000327102
-0.000205147
-3.761e-05
0.000175398
0.00043314
0.000733683
0.00107356
0.0014474
0.00184786
0.00226464
0.00268439
0.0030904
0.00346278
0.0037788
0.00401426
0.00416296
0.004147
-0.000637034
-0.000684197
-0.00064347
-0.000565636
-0.000439981
-0.000265118
-4.02481e-05
0.000234853
0.000559197
0.000930212
0.00134332
0.00179162
0.0022651
0.00274959
0.00322645
0.00367201
0.00405765
0.00435071
0.00453939
0.0045272
-0.000924728
-0.000980326
-0.000940708
-0.000862951
-0.000734251
-0.000552199
-0.000314816
-2.06328e-05
0.000330608
0.000737575
0.00119689
0.0017026
0.00224563
0.00281158
0.00338018
0.00392369
0.00440578
0.00478178
0.00502976
0.00502693
-0.001272
-0.00133836
-0.00130116
-0.00122528
-0.00109524
-0.000907325
-0.000658039
-0.000344366
3.55192e-05
0.000481906
0.000993127
0.00156493
0.0021903
0.00285569
0.00354029
0.0042128
0.00482791
0.00532423
0.00566139
0.00568062
-0.00168385
-0.00176391
-0.00173109
-0.00165997
-0.00153161
-0.00134061
-0.00108159
-0.000749661
-0.00034115
0.000146198
0.000712952
0.00135747
0.00207654
0.00285922
0.00368669
0.00452625
0.00532383
0.00599689
0.00647074
0.00654147
-0.00216593
-0.0022634
-0.00223773
-0.00217556
-0.0020535
-0.00186394
-0.00159914
-0.0012521
-0.000817108
-0.000289797
0.000332967
0.00105291
0.00187339
0.00278818
0.00378525
0.00483577
0.00588055
0.00681637
0.00750407
0.00769602
-0.00272479
-0.00284424
-0.00282932
-0.0027819
-0.00267269
-0.00249107
-0.00222642
-0.00186937
-0.00141232
-0.000848962
-0.000173828
0.000617101
0.00154032
0.00259337
0.00378007
0.00508605
0.00645779
0.00778385
0.0088146
0.00929123
-0.00336833
-0.00351462
-0.00351507
-0.00349029
-0.00340287
-0.00323792
-0.00298122
-0.002621
-0.00214827
-0.00155555
-0.000834596
2.66964e-05
0.0010297
0.00220791
0.00358463
0.00517626
0.00695913
0.00885051
0.0104428
0.0115746
-0.00411071
-0.00428693
-0.00430629
-0.00431408
-0.00426031
-0.00412319
-0.00388378
-0.00352803
-0.00304699
-0.00243454
-0.00168402
-0.00078372
0.000285196
0.00154591
0.00307007
0.00492666
0.00716839
0.00983267
0.0123169
0.01504
-0.00494253
-0.00517012
-0.00521632
-0.00527363
-0.00526825
-0.00517058
-0.00495724
-0.0046123
-0.00412841
-0.00350441
-0.00274141
-0.00183788
-0.000782548
0.000467757
0.00202483
0.00399783
0.00660709
0.0102677
0.0140438
0.0199255
-0.00603202
-0.0061252
-0.00619873
-0.00630775
-0.00639035
-0.00637463
-0.00621651
-0.0058943
-0.00540798
-0.00476909
-0.00399332
-0.00308848
-0.00205278
-0.000843157
0.000617857
0.00240877
0.00479587
0.00898291
0.0134449
0.0246158
-0.0069058
-0.00762316
-0.00765358
-0.00794709
-0.00807268
-0.00804819
-0.00785092
-0.00747798
-0.00694205
-0.00626431
-0.00548381
-0.00463747
-0.00378264
-0.00295955
-0.00225589
-0.00153137
-0.00107625
0.00282153
0.00649956
0.0266498
-0.0100733
-0.00794932
-0.0081699
-0.0083833
-0.0088004
-0.00907262
-0.00912074
-0.00889582
-0.00841779
-0.00772537
-0.00690899
-0.00602396
-0.00522946
-0.00462962
-0.00462094
-0.00513633
-0.0077047
-0.00546286
-0.00200503
0.0309122
-0.00783902
-0.0113975
-0.0114138
-0.0124993
-0.0128153
-0.0127905
-0.0124054
-0.0117318
-0.0108574
-0.00981872
-0.00876827
-0.00775387
-0.00702367
-0.00680162
-0.00777407
-0.0097446
-0.0163605
-0.0144632
-0.00606055
0.0522327
-0.030897
-0.00758333
-0.00809302
-0.00894065
-0.00975872
-0.0104122
-0.0107465
-0.0106442
-0.0102052
-0.00939865
-0.0086043
-0.00756869
-0.00707576
-0.00646639
-0.00705714
-0.00668785
-0.00495412
0.0119361
0.0584069
0.16649
1.94125e-05
-3.78913e-06
3.78662e-05
0.000115189
0.000232452
0.000388341
0.000580623
0.000806339
0.00106147
0.00134075
0.00163761
0.00194438
0.00225139
0.0025481
0.00282306
0.00306443
0.0032605
0.00340064
0.003484
0.00347109
4.19591e-05
1.73124e-05
5.87773e-05
0.000133636
0.000247402
0.00039914
0.000586917
0.000808062
0.00105881
0.00133413
0.00162748
0.00193176
0.00223709
0.00253299
0.00280793
0.00304991
0.00324693
0.00338821
0.00347379
0.00345968
-1.91679e-06
-3.01607e-05
1.08547e-05
8.53076e-05
0.000199339
0.00035219
0.000542176
0.000766904
0.00102288
0.00130531
0.00160804
0.00192299
0.0022409
0.00255079
0.00284041
0.00309678
0.00330664
0.00345774
0.00354976
0.00353323
-8.62313e-05
-0.000117864
-7.70808e-05
-2.47075e-06
0.000112901
0.000268609
0.000463357
0.000695165
0.00096092
0.00125616
0.00157491
0.00190882
0.00224881
0.00258307
0.00289818
0.00317957
0.00341192
0.0035805
0.0036841
0.00366667
-0.000217025
-0.000252752
-0.000212026
-0.000136636
-1.86552e-05
0.000141949
0.000344404
0.000587278
0.000867971
0.00118243
0.00152486
0.00188747
0.00226035
0.00263102
0.00298455
0.00330402
0.00357097
0.00376685
0.00388866
0.0038712
-0.000396362
-0.000437306
-0.00039667
-0.000320264
-0.000198882
-3.18828e-05
0.000180662
0.000438057
0.0007384
0.00107826
0.00145228
0.00185316
0.00227058
0.00269116
0.00309814
0.00347152
0.00378845
0.00402457
0.00417366
0.00415748
-0.000626874
-0.000674484
-0.000634306
-0.000557196
-0.000432297
-0.000258166
-3.3946e-05
0.000240641
0.000564658
0.000935575
0.00134886
0.00179764
0.00227193
0.00275754
0.00323576
0.00368283
0.00406991
0.00436414
0.00455361
0.00454134
-0.000912051
-0.000968181
-0.00092928
-0.000852482
-0.000724811
-0.000543779
-0.000307324
-1.3905e-05
0.000336805
0.000743536
0.00120297
0.00170922
0.00225327
0.00282072
0.00339124
0.00393698
0.00442137
0.00479937
0.00504884
0.00504624
-0.00125602
-0.00132303
-0.0012868
-0.00121223
-0.00108363
-0.000897159
-0.000649222
-0.000336696
4.23368e-05
0.000488244
0.000999436
0.00157177
0.0021984
0.00286575
0.00355301
0.00422877
0.00484747
0.00534719
0.00568704
0.00570717
-0.00166349
-0.00174437
-0.0017129
-0.00164362
-0.0015173
-0.00132839
-0.00107135
-0.000741139
-0.00033398
0.000152465
0.000718837
0.00136366
0.0020843
0.00286949
0.0037005
0.00454467
0.00534773
0.00602644
0.00650505
0.00657814
-0.00213972
-0.00223826
-0.0022145
-0.00215496
-0.00203585
-0.00184933
-0.00158743
-0.00124295
-0.000810065
-0.000284338
0.000337319
0.0010567
0.00187934
0.00279719
0.00379874
0.00485551
0.00590836
0.00685341
0.00754946
0.00774684
-0.00269069
-0.00281158
-0.00279941
-0.0027558
-0.00265088
-0.00247369
-0.00221329
-0.00186002
-0.00140613
-0.000845319
-0.000172461
0.000614737
0.00154221
0.00259871
0.00379054
0.00510433
0.00648742
0.00782802
0.00887349
0.00936181
-0.00332356
-0.00347181
-0.00347627
-0.00345704
-0.00337588
-0.00321738
-0.00296685
-0.00261212
-0.00214396
-0.00155467
-0.000835486
2.7726e-05
0.00102715
0.00220625
0.00358735
0.00518752
0.00698529
0.00889869
0.0105161
0.011673
-0.00405138
-0.00423041
-0.00425559
-0.00427148
-0.00422683
-0.00409905
-0.00386852
-0.00352066
-0.00304626
-0.00243913
-0.00169253
-0.000794619
0.00027165
0.00153143
0.00305695
0.00492088
0.00718001
0.00987529
0.0124019
0.0151771
-0.00486401
-0.00509543
-0.00514987
-0.00521893
-0.00522668
-0.00514236
-0.00494162
-0.0046078
-0.00413329
-0.00351706
-0.00276062
-0.001863
-0.000813892
0.000431229
0.00198243
0.00395552
0.00657903
0.0102802
0.0141272
0.0201079
-0.00592682
-0.00602482
-0.00610981
-0.00623538
-0.00633699
-0.00634065
-0.00620056
-0.00589394
-0.00542047
-0.0047921
-0.00402561
-0.00313018
-0.00210549
-0.000907631
0.000539928
0.0023167
0.004704
0.00892435
0.0134824
0.024817
-0.00677268
-0.00749988
-0.00754334
-0.00786077
-0.00801137
-0.00801227
-0.00783808
-0.00748471
-0.00696481
-0.00630015
-0.00553145
-0.00469773
-0.00385935
-0.00306091
-0.00239097
-0.00170649
-0.00130163
0.00258431
0.00637246
0.0267793
-0.009894
-0.00777658
-0.00801677
-0.00825907
-0.00871115
-0.00901985
-0.00910098
-0.00890381
-0.00844748
-0.00777154
-0.00696928
-0.00609922
-0.00532689
-0.0047615
-0.00480479
-0.00539791
-0.00808972
-0.00591414
-0.00232897
0.0309286
-0.00765119
-0.0112168
-0.0112341
-0.012356
-0.0127132
-0.0127344
-0.0123897
-0.0117492
-0.0108998
-0.00987864
-0.00884236
-0.0078424
-0.00713461
-0.0069509
-0.00798942
-0.0100718
-0.0168548
-0.0150461
-0.00644684
0.0524814
-0.0306357
-0.00731466
-0.00785015
-0.00874223
-0.00961767
-0.0103296
-0.0107159
-0.0106538
-0.0102441
-0.00945698
-0.00867838
-0.007657
-0.00718844
-0.00661465
-0.00726479
-0.00696147
-0.00530147
0.0116439
0.0583776
0.167256
2.25944e-05
-7.26516e-07
4.07712e-05
0.000117907
0.000234997
0.000390749
0.000582944
0.000808636
0.00106381
0.00134322
0.00164027
0.00194726
0.00225454
0.00255154
0.00282679
0.00306841
0.00326466
0.00340488
0.00348827
0.00347528
4.5372e-05
2.06003e-05
6.18995e-05
0.000136559
0.000250136
0.000401718
0.000589389
0.00081049
0.00106127
0.0013367
0.00163026
0.00193473
0.00224031
0.00253651
0.00281176
0.00305401
0.00325122
0.0033926
0.00347821
0.00346403
1.95623e-06
-2.64212e-05
1.44099e-05
8.86362e-05
0.000202446
0.000355106
0.000544949
0.000769598
0.00102556
0.00130807
0.00161095
0.00192615
0.00224436
0.00255459
0.00284457
0.00310126
0.00331137
0.0034626
0.00355469
0.00353809
-8.16543e-05
-0.000113435
-7.28664e-05
1.47262e-06
0.000116571
0.00027203
0.000466579
0.000698255
0.00096396
0.00125924
0.0015781
0.0019123
0.00225265
0.00258733
0.00290288
0.00318469
0.00341738
0.0035862
0.00368993
0.00367244
-0.000211501
-0.000247396
-0.00020693
-0.000131876
-1.42457e-05
0.000146028
0.000348205
0.000590877
0.000871466
0.00118594
0.0015285
0.00189141
0.00226471
0.00263591
0.00299002
0.00331008
0.00357756
0.00377383
0.00389587
0.0038784
-0.000389603
-0.000430744
-0.000390434
-0.000314457
-0.000193535
-2.69821e-05
0.00018517
0.000442261
0.000742424
0.00108225
0.0014564
0.00185762
0.00227556
0.00269682
0.00310461
0.00347885
0.00379659
0.00403334
0.00418288
0.00416675
-0.000618514
-0.000666362
-0.000626607
-0.000550061
-0.000425782
-0.000252268
-2.86079e-05
0.000245527
0.000569243
0.000940052
0.00135345
0.00180261
0.00227754
0.00276405
0.00324339
0.00369171
0.00408004
0.00437533
0.00456558
0.00455351
-0.000901613
-0.000958039
-0.000919702