/*--------------------------------*- C++ -*----------------------------------*\
  =========                 |
  \\      /  F ield         | OpenFOAM: The Open Source CFD Toolbox
   \\    /   O peration     | Website:  https://openfoam.org
    \\  /    A nd           | Version:  10
     \\/     M anipulation  |
\*---------------------------------------------------------------------------*/
FoamFile
{
    format      ascii;
    class       volVectorField;
    location    "6.05";
    object      U;
}
// * * * * * * * * * * * * * * * * * * * * * * * * * * * * * * * * * * * * * //

dimensions      [0 1 -1 0 0 0 0];

internalField   nonuniform List<vector> 
400
(
(-0.000103242 9.4928e-05 0)
(-0.000868789 0.000330409 0)
(-0.0021701 0.000410769 0)
(-0.00346507 0.000428444 0)
(-0.00476776 0.000429453 0)
(-0.00603887 0.00042635 0)
(-0.00725739 0.000418361 0)
(-0.0083994 0.000401218 0)
(-0.0094312 0.000369865 0)
(-0.0103084 0.000318868 0)
(-0.0109755 0.000242868 0)
(-0.0113668 0.000137503 0)
(-0.0114088 -8.1006e-07 0)
(-0.0110266 -0.000172579 0)
(-0.0101569 -0.000370598 0)
(-0.00876168 -0.000579046 0)
(-0.00685874 -0.000767094 0)
(-0.00459262 -0.000880322 0)
(-0.00203757 -0.000818032 0)
(-0.000338026 -0.000373093 0)
(-0.000363107 0.000879171 0)
(-0.00195916 0.00188035 0)
(-0.00438919 0.00220923 0)
(-0.00679651 0.00226228 0)
(-0.00918359 0.00222131 0)
(-0.0114734 0.00213863 0)
(-0.0136172 0.0020166 0)
(-0.0155667 0.00184354 0)
(-0.0172631 0.00160407 0)
(-0.0186354 0.00128146 0)
(-0.0195997 0.00085911 0)
(-0.0200622 0.00032261 0)
(-0.0199224 -0.000335152 0)
(-0.0190786 -0.00110334 0)
(-0.0174483 -0.0019501 0)
(-0.01499 -0.00281038 0)
(-0.0117487 -0.00356521 0)
(-0.00794382 -0.00400267 0)
(-0.00370546 -0.00374312 0)
(-0.000733105 -0.00198782 0)
(-0.000468571 0.00227568 0)
(-0.0024197 0.00436104 0)
(-0.00532905 0.0050219 0)
(-0.00819022 0.00510041 0)
(-0.0110113 0.00496617 0)
(-0.0137038 0.00472672 0)
(-0.0162123 0.00439202 0)
(-0.0184835 0.00394426 0)
(-0.0204534 0.00335738 0)
(-0.0220462 0.0026021 0)
(-0.0231725 0.00164927 0)
(-0.0237295 0.00047452 0)
(-0.0235973 -0.000931976 0)
(-0.0226529 -0.00255224 0)
(-0.0207907 -0.00432289 0)
(-0.017942 -0.00611359 0)
(-0.0141338 -0.00768378 0)
(-0.00960806 -0.0085994 0)
(-0.00450756 -0.00809038 0)
(-0.000899006 -0.00452698 0)
(-0.000501317 0.00373877 0)
(-0.00260255 0.00697054 0)
(-0.00573118 0.00796645 0)
(-0.00879776 0.00806065 0)
(-0.0118233 0.00782638 0)
(-0.0147188 0.00742831 0)
(-0.0174325 0.00688365 0)
(-0.0199148 0.00616815 0)
(-0.0221054 0.00524414 0)
(-0.0239292 0.00406736 0)
(-0.0252942 0.00259202 0)
(-0.0260875 0.000778988 0)
(-0.0261717 -0.00139234 0)
(-0.0253854 -0.00391233 0)
(-0.0235652 -0.00669736 0)
(-0.0205753 -0.00955644 0)
(-0.0163823 -0.0121138 0)
(-0.0112335 -0.013661 0)
(-0.00528163 -0.0129398 0)
(-0.00104053 -0.00733087 0)
(-0.000512477 0.00527692 0)
(-0.00270508 0.00972809 0)
(-0.005985 0.0110776 0)
(-0.00919982 0.0111922 0)
(-0.0123844 0.0108639 0)
(-0.0154534 0.0103182 0)
(-0.0183639 0.00958058 0)
(-0.0210759 0.00862032 0)
(-0.0235374 0.0073869 0)
(-0.0256795 0.00581737 0)
(-0.027409 0.00384157 0)
(-0.0286009 0.00139195 0)
(-0.0290928 -0.00158058 0)
(-0.0286702 -0.00508979 0)
(-0.0270827 -0.00905358 0)
(-0.0240812 -0.0132295 0)
(-0.019507 -0.0170841 0)
(-0.0135686 -0.0195478 0)
(-0.00642535 -0.0186941 0)
(-0.00125588 -0.0106544 0)
(-0.000521077 0.00686649 0)
(-0.00280228 0.0126085 0)
(-0.00623561 0.014335 0)
(-0.00960497 0.0144811 0)
(-0.0129595 0.0140735 0)
(-0.0162202 0.0134041 0)
(-0.0193568 0.0125085 0)
(-0.0223439 0.0113502 0)
(-0.0251447 0.00986486 0)
(-0.0277033 0.00796669 0)
(-0.0299329 0.00555195 0)
(-0.0317016 0.00250792 0)
(-0.0328226 -0.00127038 0)
(-0.0330173 -0.00585388 0)
(-0.0319141 -0.0112044 0)
(-0.0290881 -0.0170556 0)
(-0.0241591 -0.0226965 0)
(-0.0171907 -0.0265787 0)
(-0.00829087 -0.0257943 0)
(-0.0016337 -0.0147881 0)
(-0.00053156 0.00850988 0)
(-0.00291445 0.0156201 0)
(-0.00652208 0.0177502 0)
(-0.0100649 0.0179403 0)
(-0.0136082 0.0174716 0)
(-0.0170809 0.0167092 0)
(-0.0204701 0.0157023 0)
(-0.0237713 0.0144109 0)
(-0.0269712 0.012757 0)
(-0.0300392 0.0106295 0)
(-0.0329094 0.00788202 0)
(-0.0354593 0.00433541 0)
(-0.0374889 -0.000206749 0)
(-0.0386609 -0.0059063 0)
(-0.0384596 -0.0128585 0)
(-0.0362074 -0.0208483 0)
(-0.0311594 -0.0290108 0)
(-0.0229958 -0.0351828 0)
(-0.0115551 -0.0349708 0)
(-0.00236813 -0.0202903 0)
(-0.000544259 0.0102174 0)
(-0.00304532 0.0187839 0)
(-0.00685071 0.0213444 0)
(-0.0105827 0.0215883 0)
(-0.0143254 0.0210747 0)
(-0.0180176 0.0202515 0)
(-0.0216681 0.0191868 0)
(-0.0253004 0.0178422 0)
(-0.0289365 0.0161307 0)
(-0.0325876 0.0139173 0)
(-0.0362352 0.0110093 0)
(-0.0397985 0.00714641 0)
(-0.0430804 0.00200644 0)
(-0.0457341 -0.00475475 0)
(-0.0471303 -0.013468 0)
(-0.0462697 -0.0241185 0)
(-0.0418669 -0.0358338 0)
(-0.032771 -0.0457935 0)
(-0.0178721 -0.0474106 0)
(-0.00398448 -0.0283326 0)
(-0.000559851 0.0120001 0)
(-0.0031979 0.0221216 0)
(-0.00722416 0.0251357 0)
(-0.0111538 0.0254346 0)
(-0.0150929 0.0248847 0)
(-0.0189917 0.0240281 0)
(-0.0228847 0.0229606 0)
(-0.0268309 0.021654 0)
(-0.0308995 0.0200221 0)
(-0.0351641 0.0179161 0)
(-0.0396845 0.0151032 0)
(-0.0444706 0.0112381 0)
(-0.0494203 0.00583704 0)
(-0.0542653 -0.00172546 0)
(-0.0583505 -0.0120748 0)
(-0.0604488 -0.0257359 0)
(-0.0586263 -0.0422155 0)
(-0.0500841 -0.0584463 0)
(-0.0310344 -0.0650162 0)
(-0.00779247 -0.0414955 0)
(-0.000581401 0.0138723 0)
(-0.00338172 0.0256572 0)
(-0.00765381 0.0291374 0)
(-0.0117814 0.029477 0)
(-0.0158979 0.0288842 0)
(-0.0199653 0.0280098 0)
(-0.0240465 0.026987 0)
(-0.0282415 0.0258106 0)
(-0.0326772 0.0244129 0)
(-0.0375106 0.0226543 0)
(-0.0429208 0.0202888 0)
(-0.0490857 0.0169107 0)
(-0.0561212 0.0118838 0)
(-0.0639537 0.00429263 0)
(-0.0722936 -0.00699247 0)
(-0.0801498 -0.023215 0)
(-0.0849054 -0.0454167 0)
(-0.0804105 -0.0719313 0)
(-0.0566604 -0.0909528 0)
(-0.0157355 -0.0653312 0)
(-0.000616465 0.0158583 0)
(-0.00361892 0.0294223 0)
(-0.00816889 0.033361 0)
(-0.0124872 0.0337011 0)
(-0.0167444 0.0330345 0)
(-0.0209142 0.0321351 0)
(-0.0250882 0.0311848 0)
(-0.0294076 0.0302163 0)
(-0.0340591 0.0292034 0)
(-0.0392934 0.0280527 0)
(-0.0454411 0.0265608 0)
(-0.0529219 0.0243411 0)
(-0.0622281 0.0207124 0)
(-0.073885 0.0145765 0)
(-0.0884009 0.00430377 0)
(-0.105968 -0.0125555 0)
(-0.122961 -0.0404213 0)
(-0.125627 -0.0841963 0)
(-0.0938984 -0.13074 0)
(-0.0272576 -0.109784 0)
(-0.000680886 0.018003 0)
(-0.00395326 0.0334688 0)
(-0.00882779 0.0378259 0)
(-0.0133226 0.0380883 0)
(-0.0176652 0.0372785 0)
(-0.0218415 0.0363101 0)
(-0.0259701 0.0354236 0)
(-0.0302259 0.0347034 0)
(-0.0348448 0.0341921 0)
(-0.0401607 0.0338923 0)
(-0.0466563 0.0337296 0)
(-0.0550356 0.0334824 0)
(-0.066316 0.0326694 0)
(-0.0819399 0.0304056 0)
(-0.10394 0.0249334 0)
(-0.133566 0.0111725 0)
(-0.163757 -0.023848 0)
(-0.168446 -0.0991036 0)
(-0.124979 -0.192258 0)
(-0.0389734 -0.182904 0)
(-0.000804561 0.0203715 0)
(-0.00445897 0.0378206 0)
(-0.00972856 0.0424679 0)
(-0.0143827 0.0425172 0)
(-0.0187391 0.0414703 0)
(-0.0227965 0.0403681 0)
(-0.0266999 0.0394962 0)
(-0.0306424 0.0389995 0)
(-0.0348741 0.0390127 0)
(-0.0397637 0.03968 0)
(-0.0458832 0.0411535 0)
(-0.0541435 0.0435722 0)
(-0.0659783 0.047011 0)
(-0.0835922 0.0511902 0)
(-0.110197 0.053917 0)
(-0.14654 0.0443278 0)
(-0.17966 -0.00397998 0)
(-0.175678 -0.12487 0)
(-0.133791 -0.268158 0)
(-0.0490278 -0.280197 0)
(-0.00106867 0.0232193 0)
(-0.00533517 0.0429376 0)
(-0.0110727 0.0478133 0)
(-0.0157988 0.0474969 0)
(-0.020043 0.0459648 0)
(-0.0238427 0.0444673 0)
(-0.0273428 0.0433776 0)
(-0.0307128 0.0429127 0)
(-0.0341704 0.0433039 0)
(-0.0380353 0.0448649 0)
(-0.0428187 0.04805 0)
(-0.0493704 0.0535003 0)
(-0.0590789 0.0620381 0)
(-0.0737948 0.0736565 0)
(-0.0961666 0.0841877 0)
(-0.124569 0.0748285 0)
(-0.149749 0.0102685 0)
(-0.140061 -0.146632 0)
(-0.123226 -0.325832 0)
(-0.0477073 -0.382535 0)
(-0.00144429 0.0267132 0)
(-0.00635808 0.0475968 0)
(-0.0128315 0.0518992 0)
(-0.017782 0.0506916 0)
(-0.0219835 0.0486933 0)
(-0.0253992 0.0470253 0)
(-0.0282517 0.045927 0)
(-0.0307125 0.0455559 0)
(-0.032918 0.0461764 0)
(-0.0350179 0.0482282 0)
(-0.0372575 0.0524296 0)
(-0.040024 0.0598311 0)
(-0.0441056 0.0717455 0)
(-0.0499756 0.0876764 0)
(-0.0591412 0.101933 0)
(-0.0685134 0.090234 0)
(-0.0819132 0.0183743 0)
(-0.0735485 -0.1499 0)
(-0.091754 -0.353797 0)
(-0.0291671 -0.465932 0)
(-0.00351062 0.0299132 0)
(-0.0107093 0.0561302 0)
(-0.0166104 0.0603532 0)
(-0.0207861 0.0586575 0)
(-0.0240216 0.0552881 0)
(-0.0266807 0.0522556 0)
(-0.0288246 0.0499563 0)
(-0.0304282 0.0486047 0)
(-0.0314042 0.0484557 0)
(-0.0316105 0.049929 0)
(-0.0308633 0.0537948 0)
(-0.0288158 0.0611496 0)
(-0.0256055 0.0735368 0)
(-0.0195882 0.0896532 0)
(-0.0132777 0.104683 0)
(6.21093e-05 0.0932122 0)
(-0.00130701 0.0236551 0)
(0.0037279 -0.132399 0)
(-0.0472269 -0.351766 0)
(-0.00730623 -0.510448 0)
(-0.00116794 0.0438879 0)
(-0.00867842 0.0585833 0)
(-0.0195705 0.0592142 0)
(-0.0241576 0.0547338 0)
(-0.0281589 0.0514986 0)
(-0.0303753 0.0491674 0)
(-0.0315365 0.0475314 0)
(-0.0316894 0.0464791 0)
(-0.0307689 0.0461876 0)
(-0.0284797 0.0469635 0)
(-0.0243644 0.0495272 0)
(-0.0172802 0.0545517 0)
(-0.00718736 0.0634645 0)
(0.00977473 0.0751929 0)
(0.0292158 0.0858439 0)
(0.0592537 0.0770339 0)
(0.0652863 0.0192086 0)
(0.0698239 -0.10252 0)
(-0.00349367 -0.324173 0)
(0.0185322 -0.521192 0)
(-0.0124089 0.0328586 0)
(-0.024334 0.0798863 0)
(-0.0239506 0.0787666 0)
(-0.0302967 0.0735979 0)
(-0.0323768 0.0663169 0)
(-0.0327188 0.0601401 0)
(-0.0312145 0.0550312 0)
(-0.0281897 0.0509433 0)
(-0.0237479 0.0478674 0)
(-0.0176175 0.0456573 0)
(-0.00984317 0.0447229 0)
(0.00108488 0.0452379 0)
(0.0147594 0.048446 0)
(0.0355356 0.0534471 0)
(0.0568605 0.0593227 0)
(0.0924481 0.0536706 0)
(0.0996167 0.0183015 0)
(0.125265 -0.0666701 0)
(0.055289 -0.288348 0)
(0.0602122 -0.504956 0)
(-0.0772294 0.0967438 0)
(-0.0629634 0.059441 0)
(-0.0653768 0.0599283 0)
(-0.0440468 0.0532558 0)
(-0.0270019 0.0463582 0)
(-0.00728025 0.0411973 0)
(0.0113123 0.0374646 0)
(0.0300336 0.0342568 0)
(0.0472282 0.0318602 0)
(0.0655275 0.0295886 0)
(0.0812903 0.0282161 0)
(0.101038 0.0271288 0)
(0.115464 0.0270266 0)
(0.143131 0.0276185 0)
(0.154542 0.0248054 0)
(0.202184 0.018773 0)
(0.196917 -0.0152567 0)
(0.238605 -0.0797421 0)
(0.165638 -0.262836 0)
(0.127436 -0.441946 0)
(0.119754 0.140733 0)
(0.152438 0.0861636 0)
(0.229373 0.0635791 0)
(0.28473 0.0481436 0)
(0.326002 0.0374645 0)
(0.364379 0.029671 0)
(0.39286 0.0242506 0)
(0.424342 0.020242 0)
(0.444044 0.0173267 0)
(0.472708 0.0151698 0)
(0.485505 0.0133971 0)
(0.514994 0.012378 0)
(0.520455 0.0112587 0)
(0.554509 0.0108373 0)
(0.549625 0.00939392 0)
(0.586597 0.00556634 0)
(0.557855 -0.00387078 0)
(0.567171 -0.0273498 0)
(0.429828 -0.072681 0)
(0.276341 -0.152067 0)
)
;

boundaryField
{
    movingWall
    {
        type            fixedValue;
        value           uniform (1 0 0);
    }
    fixedWalls
    {
        type            noSlip;
    }
    frontAndBack
    {
        type            empty;
    }
}


// ************************************************************************* //
