/*--------------------------------*- C++ -*----------------------------------*\
  =========                 |
  \\      /  F ield         | OpenFOAM: The Open Source CFD Toolbox
   \\    /   O peration     | Website:  https://openfoam.org
    \\  /    A nd           | Version:  10
     \\/     M anipulation  |
\*---------------------------------------------------------------------------*/
FoamFile
{
    format      ascii;
    class       volScalarField;
    location    "4.575";
    object      p;
}
// * * * * * * * * * * * * * * * * * * * * * * * * * * * * * * * * * * * * * //

dimensions      [0 2 -2 0 0 0 0];

internalField   nonuniform List<scalar> 
400
(
-2.23996e-08
-2.67927e-05
-2.20201e-07
5.58781e-05
0.000147731
0.000276081
0.000441773
0.000645518
0.000887219
0.0011654
0.0014766
0.00181474
0.002171
0.0025321
0.00288158
0.00319995
0.00346559
0.00365723
0.00377051
0.00375559
2.73119e-05
-3.61747e-07
2.84375e-05
8.30982e-05
0.000171367
0.000294646
0.000454224
0.000651194
0.000885836
0.0011571
0.00146201
0.0017947
0.00214699
0.0025062
0.00285588
0.00317633
0.00344527
0.0036412
0.0037609
0.00374461
-3.28494e-06
-3.64956e-05
-9.33338e-06
4.24137e-05
0.000127291
0.000246953
0.000403135
0.000597552
0.000831233
0.00110394
0.00141353
0.00175564
0.00212199
0.00250003
0.00287266
0.00321847
0.00351212
0.0037278
0.00386086
0.00383902
-7.01893e-05
-0.000107788
-8.30046e-05
-3.52364e-05
4.49976e-05
0.00015976
0.000311496
0.000502884
0.000736117
0.00101232
0.00133075
0.00168799
0.00207807
0.00248829
0.00290064
0.00329072
0.00362797
0.00387932
0.00403695
0.00401276
-0.000179124
-0.000221289
-0.000199784
-0.000157135
-8.28068e-05
2.57925e-05
0.000172029
0.000359856
0.000593067
0.000874707
0.00120619
0.00158594
0.00201045
0.00246744
0.00293842
0.0033956
0.00380114
0.00410987
0.00430759
0.00428389
-0.000329925
-0.00037748
-0.000360291
-0.000324303
-0.000257832
-0.000157679
-1.9385e-05
0.000162556
0.000393986
0.000680552
0.00102688
0.00143565
0.00190193
0.00242075
0.00297248
0.00352535
0.00403213
0.00442958
0.00469081
0.00467305
-0.000522183
-0.000576263
-0.000564637
-0.000537408
-0.000481657
-0.000393578
-0.000267521
-9.62126e-05
0.000128623
0.000415859
0.000774128
0.00121019
0.00172702
0.00232228
0.00297908
0.00366317
0.00431629
0.00485025
0.00521245
0.00521467
-0.00075569
-0.000817656
-0.000813065
-0.00079725
-0.000756031
-0.000685116
-0.000577703
-0.000424679
-0.000215064
6.38514e-05
0.000425942
0.000884769
0.0014512
0.00213283
0.00291873
0.00377645
0.00463718
0.00538186
0.00590742
0.0059666
-0.00103019
-0.00110153
-0.00110552
-0.00110417
-0.00108212
-0.00103489
-0.000954771
-0.000830979
-0.00064984
-0.000394473
-4.47859e-05
0.000421251
0.00102346
0.00179333
0.0027257
0.00380233
0.00495082
0.00601949
0.00681848
0.00702949
-0.00134537
-0.00142759
-0.00144143
-0.00145762
-0.00145985
-0.00144396
-0.00140186
-0.00132165
-0.00118748
-0.000978561
-0.000668134
-0.000222281
0.00040085
0.00122404
0.00229346
0.00362223
0.005153
0.00671541
0.00799219
0.00858445
-0.00170112
-0.00179555
-0.00181962
-0.00185578
-0.00188717
-0.00191071
-0.00191878
-0.0018994
-0.00183585
-0.00170514
-0.00147597
-0.00110608
-0.000540824
0.000285548
0.00144091
0.00301225
0.00500633
0.00729845
0.00942269
0.0109432
-0.00209828
-0.00220566
-0.00223835
-0.00229522
-0.0023593
-0.00242957
-0.00250002
-0.00256003
-0.00259414
-0.00258021
-0.00248647
-0.00226693
-0.00185472
-0.0011588
-6.43579e-05
0.00161104
0.00399738
0.0072173
0.0107668
0.0141703
-0.00254025
-0.00266006
-0.00269601
-0.00277092
-0.00286806
-0.00298982
-0.003133
-0.00328979
-0.00344865
-0.00359284
-0.00369751
-0.00372478
-0.00361518
-0.0032738
-0.00255768
-0.00132008
0.00090073
0.00483267
0.0102918
0.0168219
-0.00303357
-0.00315772
-0.00318212
-0.00326678
-0.00339532
-0.0035721
-0.00379564
-0.00406241
-0.00436778
-0.00470539
-0.00506607
-0.00543632
-0.00579735
-0.00612485
-0.00641644
-0.00666362
-0.00640802
-0.00383543
0.00224346
0.0129541
-0.00361032
-0.00375088
-0.00375184
-0.00384046
-0.00398199
-0.00419322
-0.00448167
-0.004852
-0.00530904
-0.00586091
-0.00652394
-0.00732697
-0.00833084
-0.00966091
-0.0116505
-0.0148039
-0.0194549
-0.020547
-0.0150237
0.000839592
-0.00434823
-0.00428547
-0.0041906
-0.00420943
-0.00435954
-0.00463501
-0.00502733
-0.00553233
-0.00615716
-0.00692082
-0.00786592
-0.00907551
-0.0107254
-0.0130949
-0.0169972
-0.0234007
-0.0340617
-0.0402762
-0.0364291
-0.0135782
-0.00482311
-0.00526062
-0.00503918
-0.00513382
-0.00523395
-0.0054614
-0.00582742
-0.00634701
-0.00703494
-0.00791445
-0.00904221
-0.0105162
-0.0126197
-0.0156369
-0.0209703
-0.0288225
-0.0433657
-0.0524633
-0.0493581
-0.0135715
-0.00811565
-0.0055939
-0.00507792
-0.00465983
-0.00475435
-0.00511839
-0.00568814
-0.0064101
-0.00728926
-0.00832773
-0.00960671
-0.0111664
-0.0134258
-0.0164325
-0.0219008
-0.02976
-0.0422899
-0.0482263
-0.038827
0.0147212
-0.00491639
-0.00782571
-0.00691881
-0.00710109
-0.00689016
-0.00690849
-0.00713015
-0.00758506
-0.00827466
-0.0091593
-0.0103235
-0.0116983
-0.0138065
-0.0165539
-0.0216585
-0.0282157
-0.0368106
-0.0328539
-0.00611641
0.0795249
-0.0297472
-0.00478685
-0.00356423
-0.00299363
-0.00300717
-0.00349635
-0.00433601
-0.00527275
-0.00641911
-0.00760387
-0.00912274
-0.0108179
-0.0131321
-0.0159823
-0.0194813
-0.0213344
-0.0183341
0.00940039
0.0783018
0.217543
)
;

boundaryField
{
    movingWall
    {
        type            zeroGradient;
    }
    fixedWalls
    {
        type            zeroGradient;
    }
    frontAndBack
    {
        type            empty;
    }
}


// ************************************************************************* //
