/*--------------------------------*- C++ -*----------------------------------*\
  =========                 |
  \\      /  F ield         | OpenFOAM: The Open Source CFD Toolbox
   \\    /   O peration     | Website:  https://openfoam.org
    \\  /    A nd           | Version:  10
     \\/     M anipulation  |
\*---------------------------------------------------------------------------*/
FoamFile
{
    format      ascii;
    class       volVectorField;
    location    "8.575";
    object      U;
}
// * * * * * * * * * * * * * * * * * * * * * * * * * * * * * * * * * * * * * //

dimensions      [0 1 -1 0 0 0 0];

internalField   nonuniform List<vector> 
400
(
(-0.000158736 0.000140051 0)
(-0.00118449 0.000439948 0)
(-0.00291859 0.000549179 0)
(-0.00469887 0.000585502 0)
(-0.00654278 0.000605 0)
(-0.00841192 0.000625512 0)
(-0.0102924 0.000646238 0)
(-0.0121615 0.000659557 0)
(-0.0139733 0.000654662 0)
(-0.0156534 0.000617685 0)
(-0.0170937 0.000532016 0)
(-0.0181465 0.000380138 0)
(-0.0186289 0.000148366 0)
(-0.0183316 -0.000178425 0)
(-0.0170566 -0.000583378 0)
(-0.0146822 -0.00101821 0)
(-0.0112683 -0.00138394 0)
(-0.00721277 -0.0015364 0)
(-0.00285168 -0.0013087 0)
(-0.000300831 -0.000449396 0)
(-0.000511476 0.00120774 0)
(-0.0026643 0.00251371 0)
(-0.00596348 0.00300252 0)
(-0.00934818 0.00316439 0)
(-0.0128148 0.00321866 0)
(-0.016275 0.00323704 0)
(-0.0196779 0.00322015 0)
(-0.0229632 0.00314041 0)
(-0.026039 0.0029566 0)
(-0.0287735 0.00261703 0)
(-0.0309875 0.00206295 0)
(-0.0324495 0.00123414 0)
(-0.0328959 8.04647e-05 0)
(-0.0320275 -0.00140405 0)
(-0.0295644 -0.00314294 0)
(-0.0253555 -0.00493406 0)
(-0.0195205 -0.00639809 0)
(-0.0126671 -0.00698385 0)
(-0.00534953 -0.00606139 0)
(-0.000802341 -0.00266073 0)
(-0.00066893 0.00312854 0)
(-0.00335199 0.00590142 0)
(-0.00738343 0.00693202 0)
(-0.0114894 0.00725667 0)
(-0.0156677 0.00732433 0)
(-0.0198122 0.00728218 0)
(-0.0238623 0.00713678 0)
(-0.0277501 0.00683787 0)
(-0.0313754 0.00630728 0)
(-0.0345961 0.00544634 0)
(-0.037219 0.00414308 0)
(-0.0389956 0.00228562 0)
(-0.0396127 -0.000214384 0)
(-0.0387022 -0.00336547 0)
(-0.0358992 -0.00702448 0)
(-0.0309437 -0.0107904 0)
(-0.0238889 -0.0138928 0)
(-0.015444 -0.0151486 0)
(-0.00633688 -0.0132122 0)
(-0.000843565 -0.00612203 0)
(-0.000720712 0.00518579 0)
(-0.00362616 0.0095346 0)
(-0.0079831 0.0111217 0)
(-0.0124043 0.011597 0)
(-0.0169024 0.0116666 0)
(-0.0213736 0.0115595 0)
(-0.0257678 0.0112902 0)
(-0.0300312 0.0107881 0)
(-0.03408 0.00993961 0)
(-0.0377876 0.0085971 0)
(-0.040967 0.00658579 0)
(-0.0433577 0.00372281 0)
(-0.0446122 -0.00014288 0)
(-0.0442641 -0.00506623 0)
(-0.0417621 -0.0109021 0)
(-0.0365928 -0.0170678 0)
(-0.0285501 -0.0223231 0)
(-0.01836 -0.0245825 0)
(-0.00701937 -0.0213644 0)
(-0.000614026 -0.00962587 0)
(-0.000723677 0.00733194 0)
(-0.00370717 0.0133463 0)
(-0.00820762 0.0155188 0)
(-0.012778 0.0161578 0)
(-0.0174489 0.0162482 0)
(-0.0221301 0.0161094 0)
(-0.0267957 0.0157688 0)
(-0.031422 0.0151394 0)
(-0.0359607 0.014074 0)
(-0.0403226 0.0123729 0)
(-0.0443505 0.00978441 0)
(-0.0477857 0.00601839 0)
(-0.0502261 0.000795668 0)
(-0.0510983 -0.00605894 0)
(-0.0495931 -0.0144999 0)
(-0.0447437 -0.0238417 0)
(-0.0357791 -0.0322904 0)
(-0.0230988 -0.0363814 0)
(-0.00801024 -0.0314529 0)
(-0.000124188 -0.0133059 0)
(-0.000706161 0.00948968 0)
(-0.00370515 0.0172304 0)
(-0.0082725 0.0200189 0)
(-0.0129268 0.0208461 0)
(-0.0177154 0.0209947 0)
(-0.0225686 0.0208858 0)
(-0.0274945 0.0205685 0)
(-0.0325133 0.0199474 0)
(-0.0376316 0.0188476 0)
(-0.0428243 0.0170178 0)
(-0.0480007 0.0141181 0)
(-0.0529461 0.00971754 0)
(-0.0572508 0.00332914 0)
(-0.0602581 -0.00549981 0)
(-0.0608772 -0.0169935 0)
(-0.0574889 -0.0306112 0)
(-0.0481746 -0.0441105 0)
(-0.0319928 -0.0519976 0)
(-0.0102937 -0.044869 0)
(0.000654082 -0.0172387 0)
(-0.000678002 0.0116222 0)
(-0.00366236 0.0211346 0)
(-0.00825914 0.0245702 0)
(-0.0129607 0.0256143 0)
(-0.0178299 0.0258662 0)
(-0.0228204 0.0258629 0)
(-0.0279812 0.0256885 0)
(-0.0333897 0.0252533 0)
(-0.0391287 0.0243694 0)
(-0.0452724 0.0227446 0)
(-0.0518519 0.0199524 0)
(-0.0587867 0.0153985 0)
(-0.0657936 0.00831013 0)
(-0.0722932 -0.0021865 0)
(-0.0770563 -0.0168241 0)
(-0.0776359 -0.0359637 0)
(-0.0698488 -0.0576501 0)
(-0.0491987 -0.0737467 0)
(-0.0167454 -0.0645453 0)
(0.00133249 -0.0224168 0)
(-0.000641302 0.01371 0)
(-0.00359076 0.0250325 0)
(-0.00818907 0.0291425 0)
(-0.0129001 0.0304264 0)
(-0.017799 0.0308213 0)
(-0.0228627 0.0309973 0)
(-0.028184 0.0310909 0)
(-0.033907 0.0310404 0)
(-0.040212 0.0306741 0)
(-0.0473138 0.0296952 0)
(-0.0554434 0.0276278 0)
(-0.064804 0.0237474 0)
(-0.0754766 0.0170166 0)
(-0.0872723 0.00603188 0)
(-0.0993893 -0.011097 0)
(-0.108213 -0.0367858 0)
(-0.104905 -0.0718155 0)
(-0.0789668 -0.104425 0)
(-0.0336898 -0.0958349 0)
(-2.85863e-05 -0.0322975 0)
(-0.000597391 0.0157368 0)
(-0.0034966 0.0289021 0)
(-0.00806983 0.0337029 0)
(-0.0127415 0.0352324 0)
(-0.0175952 0.0357895 0)
(-0.0226263 0.0361979 0)
(-0.0279682 0.0366675 0)
(-0.033831 0.0371936 0)
(-0.040501 0.0376642 0)
(-0.0483642 0.037845 0)
(-0.0579288 0.0373144 0)
(-0.0698457 0.0353763 0)
(-0.0849537 0.0309466 0)
(-0.104184 0.022137 0)
(-0.12712 0.0048159 0)
(-0.147651 -0.0288682 0)
(-0.149704 -0.085476 0)
(-0.119295 -0.145283 0)
(-0.0681271 -0.143924 0)
(-0.00815609 -0.0547888 0)
(-0.000550759 0.0176914 0)
(-0.00339483 0.0327256 0)
(-0.00792143 0.0382132 0)
(-0.0124954 0.0399643 0)
(-0.0172045 0.0406661 0)
(-0.0220537 0.0413177 0)
(-0.0272054 0.0422248 0)
(-0.0329224 0.0434725 0)
(-0.0395813 0.0450632 0)
(-0.0477287 0.04692 0)
(-0.0581663 0.0488455 0)
(-0.0720735 0.0504536 0)
(-0.0912248 0.0509474 0)
(-0.117907 0.0478024 0)
(-0.151716 0.032334 0)
(-0.181363 -0.0127616 0)
(-0.185354 -0.0999233 0)
(-0.157534 -0.191 0)
(-0.113591 -0.205889 0)
(-0.0268167 -0.103312 0)
(-0.000511875 0.0195772 0)
(-0.00331869 0.0364966 0)
(-0.00779316 0.0426306 0)
(-0.0122091 0.0445331 0)
(-0.0166579 0.0453079 0)
(-0.0211405 0.0461479 0)
(-0.0258287 0.0474702 0)
(-0.0310046 0.0494754 0)
(-0.0370831 0.0523317 0)
(-0.0446943 0.0562214 0)
(-0.054819 0.061364 0)
(-0.0689571 0.0679609 0)
(-0.0893139 0.0755184 0)
(-0.118619 0.0797077 0)
(-0.154726 0.0647976 0)
(-0.183985 0.0051984 0)
(-0.187066 -0.109823 0)
(-0.168813 -0.227999 0)
(-0.139141 -0.276447 0)
(-0.0459462 -0.193999 0)
(-0.000502849 0.0214323 0)
(-0.00333558 0.0402588 0)
(-0.00778403 0.0469652 0)
(-0.0119871 0.0488955 0)
(-0.0160541 0.0495986 0)
(-0.0199713 0.0504802 0)
(-0.0238958 0.0520752 0)
(-0.02808 0.054704 0)
(-0.0328875 0.0587201 0)
(-0.0388682 0.0646106 0)
(-0.0468773 0.0730786 0)
(-0.0581539 0.0848745 0)
(-0.0741147 0.0992323 0)
(-0.0965523 0.108782 0)
(-0.122324 0.0920204 0)
(-0.141619 0.0202099 0)
(-0.144288 -0.109195 0)
(-0.137037 -0.247381 0)
(-0.127124 -0.337879 0)
(-0.0483711 -0.302157 0)
(-0.00055453 0.0233083 0)
(-0.00352929 0.0439751 0)
(-0.00802815 0.051034 0)
(-0.0119984 0.0527689 0)
(-0.0155873 0.0532078 0)
(-0.0187534 0.0539341 0)
(-0.0216294 0.0555549 0)
(-0.0243927 0.0584774 0)
(-0.0272579 0.063181 0)
(-0.030518 0.0703451 0)
(-0.0345796 0.0809285 0)
(-0.0398935 0.0957792 0)
(-0.0465846 0.11359 0)
(-0.0554054 0.124797 0)
(-0.0650168 0.106586 0)
(-0.0710726 0.0297359 0)
(-0.074603 -0.100282 0)
(-0.0774322 -0.243682 0)
(-0.0943443 -0.364569 0)
(-0.0358429 -0.381155 0)
(-0.000771789 0.0255269 0)
(-0.00418479 0.0482692 0)
(-0.00884663 0.0556077 0)
(-0.0124848 0.0569364 0)
(-0.0154473 0.0567357 0)
(-0.0177164 0.0568532 0)
(-0.0193732 0.0579881 0)
(-0.0204818 0.0605927 0)
(-0.0210795 0.0651717 0)
(-0.0211441 0.0724064 0)
(-0.0205916 0.0832114 0)
(-0.0190095 0.0981546 0)
(-0.0157082 0.115766 0)
(-0.0102996 0.126277 0)
(-0.00495161 0.10874 0)
(0.000258605 0.033796 0)
(-0.00829046 -0.0878254 0)
(-0.0221638 -0.222218 0)
(-0.0644764 -0.365507 0)
(-0.0218342 -0.43465 0)
(-0.00111674 0.028257 0)
(-0.00499615 0.0517981 0)
(-0.0101506 0.0583942 0)
(-0.013716 0.0585933 0)
(-0.0162325 0.0576544 0)
(-0.0175805 0.0572694 0)
(-0.0179064 0.0579662 0)
(-0.0172381 0.0600543 0)
(-0.015488 0.0639384 0)
(-0.0123772 0.0701541 0)
(-0.00751862 0.0793687 0)
(0.000125089 0.0917451 0)
(0.0113643 0.106009 0)
(0.0274692 0.113868 0)
(0.0420073 0.0986024 0)
(0.0545077 0.0339094 0)
(0.0412744 -0.0717452 0)
(0.0220847 -0.18862 0)
(-0.0416983 -0.350658 0)
(-0.00998862 -0.470868 0)
(-0.00319882 0.0305155 0)
(-0.00943941 0.0589772 0)
(-0.0139078 0.06546 0)
(-0.0163973 0.065034 0)
(-0.0175105 0.0623359 0)
(-0.0175981 0.0600992 0)
(-0.0166559 0.0589712 0)
(-0.0145261 0.0592575 0)
(-0.0109282 0.0612372 0)
(-0.00538709 0.0652076 0)
(0.0025864 0.0715474 0)
(0.0142872 0.0800992 0)
(0.0298671 0.0896282 0)
(0.0509118 0.0939383 0)
(0.0693257 0.0819011 0)
(0.0863269 0.0336849 0)
(0.0707283 -0.0493176 0)
(0.0512924 -0.146031 0)
(-0.0262644 -0.327414 0)
(0.00277805 -0.493034 0)
(-0.000961502 0.0439587 0)
(-0.00770709 0.0604812 0)
(-0.0172022 0.0627396 0)
(-0.0197159 0.058822 0)
(-0.0211847 0.0557528 0)
(-0.0204975 0.0537344 0)
(-0.018385 0.0527075 0)
(-0.0147246 0.0525771 0)
(-0.00932383 0.0534714 0)
(-0.00167786 0.0554862 0)
(0.00865925 0.0590085 0)
(0.0228118 0.063745 0)
(0.0401915 0.0687028 0)
(0.0631417 0.0699481 0)
(0.0815452 0.0609629 0)
(0.101018 0.0290424 0)
(0.0838514 -0.0301426 0)
(0.0678275 -0.105967 0)
(-0.00901529 -0.303573 0)
(0.0218412 -0.502674 0)
(-0.0125596 0.032242 0)
(-0.0232847 0.080359 0)
(-0.0212975 0.0803473 0)
(-0.0256941 0.0753696 0)
(-0.0256721 0.0679665 0)
(-0.0238366 0.0618597 0)
(-0.019915 0.0569879 0)
(-0.0140935 0.0532695 0)
(-0.00643307 0.0507152 0)
(0.00351223 0.0491173 0)
(0.0157029 0.0487403 0)
(0.0310774 0.0491014 0)
(0.0481745 0.0504928 0)
(0.0703328 0.0499915 0)
(0.0854389 0.0458529 0)
(0.106613 0.0297709 0)
(0.0937339 -0.00579149 0)
(0.101485 -0.0657567 0)
(0.0401259 -0.274472 0)
(0.0577506 -0.49017 0)
(-0.0776429 0.0959051 0)
(-0.063257 0.0587938 0)
(-0.0653107 0.0599645 0)
(-0.0428617 0.053331 0)
(-0.0251395 0.0463642 0)
(-0.00456691 0.0412001 0)
(0.0148564 0.037438 0)
(0.0346545 0.0342481 0)
(0.0530342 0.0319437 0)
(0.0730282 0.0298593 0)
(0.0904739 0.0287049 0)
(0.112756 0.0276611 0)
(0.128512 0.0270734 0)
(0.157598 0.0261329 0)
(0.167637 0.0209436 0)
(0.203111 0.0121236 0)
(0.192126 -0.0211859 0)
(0.223432 -0.0743553 0)
(0.154429 -0.251928 0)
(0.125004 -0.433545 0)
(0.119393 0.140768 0)
(0.152006 0.0860826 0)
(0.228447 0.0635053 0)
(0.283909 0.0480474 0)
(0.325326 0.0374166 0)
(0.363637 0.0296564 0)
(0.392346 0.0242252 0)
(0.42356 0.0201814 0)
(0.443499 0.0172812 0)
(0.472086 0.0149816 0)
(0.484901 0.0132832 0)
(0.514317 0.0119718 0)
(0.519819 0.0108476 0)
(0.552176 0.00966174 0)
(0.54727 0.00765388 0)
(0.579537 0.00324257 0)
(0.548249 -0.00585413 0)
(0.55381 -0.0271704 0)
(0.420123 -0.0732355 0)
(0.275271 -0.152008 0)
)
;

boundaryField
{
    movingWall
    {
        type            fixedValue;
        value           uniform (1 0 0);
    }
    fixedWalls
    {
        type            noSlip;
    }
    frontAndBack
    {
        type            empty;
    }
}


// ************************************************************************* //
