/*--------------------------------*- C++ -*----------------------------------*\
  =========                 |
  \\      /  F ield         | OpenFOAM: The Open Source CFD Toolbox
   \\    /   O peration     | Website:  https://openfoam.org
    \\  /    A nd           | Version:  10
     \\/     M anipulation  |
\*---------------------------------------------------------------------------*/
FoamFile
{
    format      ascii;
    class       surfaceScalarField;
    location    "0.375";
    object      phi;
}
// * * * * * * * * * * * * * * * * * * * * * * * * * * * * * * * * * * * * * //

dimensions      [0 3 -1 0 0 0 0];

internalField   nonuniform List<scalar> 
890
(
0.00989046
0.000109539
0.00994024
-4.97761e-05
0.0097524
0.000187835
0.0107691
-0.0010167
-0.000362889
0.011132
0.0101107
-1.12174e-06
0.0101285
-6.75779e-05
0.0106003
-0.000283966
0.0102007
-0.000617115
-0.000701905
0.0105397
0.0100469
-4.80526e-05
0.0102218
-0.000242448
0.0102526
-0.000314723
0.01024
-0.000604556
-0.000804362
0.0103425
0.010098
-0.000146026
0.01013
-0.000274458
0.0101646
-0.000349371
0.00998592
-0.000425841
-0.000421643
0.0096032
0.00985397
0.00957952
0.00923015
0.0088043
0.00838266
0.0113787
-0.0031732
0.00292646
0.0114996
-0.00399097
0.0038701
0.00996225
-0.00305059
0.00458794
0.00812797
-0.00216972
0.004004
0.00679686
-0.0015877
0.00291882
0.00602233
-0.00121948
0.00199402
0.00561399
-0.000952808
0.00136114
0.00540592
-0.000737593
0.000945665
0.00529856
-0.000560633
0.000667995
0.00524015
-0.00041902
0.000477425
0.00520617
-0.000309641
0.000343626
0.00518517
-0.000227277
0.000248281
0.00517158
-0.000166178
0.000179765
0.00516251
-0.000121233
0.000130302
0.00515632
-8.83208e-05
9.45067e-05
0.00515204
-6.42815e-05
6.857e-05
0.00514902
-4.67495e-05
4.97613e-05
0.00514689
-3.39794e-05
3.6113e-05
0.00514537
-2.46891e-05
2.62063e-05
0.00514429
-1.79363e-05
1.90164e-05
0.00514352
-1.30289e-05
1.38003e-05
0.00514297
-9.46125e-06
1.00165e-05
0.00514256
-6.86677e-06
7.27006e-06
0.00514227
-4.98107e-06
5.27515e-06
0.00514206
-3.61271e-06
3.82577e-06
0.0051419
-2.62145e-06
2.77357e-06
0.0051418
-1.90385e-06
2.01122e-06
0.00514172
-1.3837e-06
1.46011e-06
0.00514166
-1.00549e-06
1.06143e-06
0.00514162
-7.29543e-07
7.71784e-07
0.00514159
-5.28052e-07
5.6054e-07
0.00514156
-3.81508e-07
4.06197e-07
0.00514155
-2.75581e-07
2.93266e-07
0.00514154
-1.99389e-07
2.10375e-07
0.00514153
-1.44942e-07
1.51579e-07
0.00514152
-1.0583e-07
1.10038e-07
0.00514152
-7.75779e-08
8.07278e-08
0.00514152
-5.68424e-08
5.97312e-08
0.00514152
-4.1624e-08
4.46313e-08
0.00514151
-3.08683e-08
3.36251e-08
0.00514151
-2.35334e-08
2.58224e-08
0.00514151
-1.85012e-08
1.99267e-08
0.00514151
-1.54264e-08
1.58412e-08
0.00514151
-1.67536e-08
1.61257e-08
-1.64027e-08
1.48222e-08
0.00920753
-0.00184103
0.00764451
-0.00242795
0.00677953
-0.00218562
0.00627733
-0.00166751
0.00599569
-0.00130606
0.00581115
-0.00103494
0.00566009
-0.000801756
0.00553092
-0.000608417
0.0054267
-0.000456419
0.00534758
-0.0003399
0.00528965
-0.000251705
0.00524792
-0.000185551
0.00521803
-0.000136291
0.00519663
-9.98284e-05
0.00518127
-7.29646e-05
0.00517023
-5.32406e-05
0.00516228
-3.87964e-05
0.00515654
-2.82416e-05
0.0051524
-2.05434e-05
0.0051494
-1.49364e-05
0.00514722
-1.08554e-05
0.00514565
-7.88562e-06
0.00514451
-5.72507e-06
0.00514368
-4.1545e-06
0.00514308
-3.0143e-06
0.00514265
-2.18763e-06
0.00514233
-1.58857e-06
0.0051421
-1.15397e-06
0.00514193
-8.37928e-07
0.00514181
-6.0779e-07
0.00514173
-4.40298e-07
0.00514166
-3.18523e-07
0.00514162
-2.30261e-07
0.00514158
-1.66578e-07
0.00514156
-1.20909e-07
0.00514154
-8.8193e-08
0.00514153
-6.44056e-08
0.00514152
-4.71484e-08
0.00514151
-3.47069e-08
0.00514151
-2.6028e-08
0.0051415
-1.99316e-08
0.0051415
-1.57878e-08
0.0051415
-1.34568e-08
0.0051415
-1.51403e-08
-1.57519e-08
0.00952325
-0.00102183
0.00840347
-0.00130817
0.00754283
-0.00132497
0.00698526
-0.00110994
0.00655305
-0.000873851
0.00619474
-0.000676641
0.00591407
-0.000521082
0.00570425
-0.000398599
0.00555051
-0.000302674
0.00543853
-0.000227924
0.00535709
-0.000170265
0.00529789
-0.000126353
0.00525488
-9.32814e-05
0.00522365
-6.85926e-05
0.00520097
-5.02843e-05
0.0051845
-3.67734e-05
0.00517254
-2.684e-05
0.00516386
-1.95603e-05
0.00515756
-1.42403e-05
0.00515298
-1.03604e-05
0.00514966
-7.53341e-06
0.00514725
-5.47401e-06
0.0051455
-3.97419e-06
0.00514423
-2.88322e-06
0.00514331
-2.09138e-06
0.00514264
-1.51783e-06
0.00514215
-1.10254e-06
0.0051418
-8.01282e-07
0.00514154
-5.81985e-07
0.00514136
-4.21847e-07
0.00514122
-3.04924e-07
0.00514112
-2.20015e-07
0.00514105
-1.58921e-07
0.005141
-1.1531e-07
0.00514096
-8.40027e-08
0.00514094
-6.14422e-08
0.00514092
-4.49727e-08
0.0051409
-3.29997e-08
0.00514089
-2.40062e-08
0.00514088
-1.79976e-08
0.00514088
-1.31377e-08
0.00514087
-1.11335e-08
0.00514087
-9.73967e-09
0.00514086
-1.14765e-08
-1.43796e-08
0.00911703
-0.000535656
0.00845727
-0.000648411
0.00774221
-0.000609913
0.00712277
-0.000490503
0.00662993
-0.00038102
0.00625281
-0.000299516
0.00596622
-0.000234496
0.00574864
-0.000181015
0.00558419
-0.00013823
0.00546089
-0.000104623
0.00536916
-7.85337e-05
0.00530134
-5.85293e-05
0.00525142
-4.33659e-05
0.00521481
-3.19807e-05
0.00518802
-2.34959e-05
0.00516846
-1.72094e-05
0.00515419
-1.25738e-05
0.0051438
-9.16983e-06
0.00513624
-6.67871e-06
0.00513074
-4.85986e-06
0.00512674
-3.53334e-06
0.00512383
-2.56638e-06
0.00512172
-1.86216e-06
0.00512019
-1.35026e-06
0.00511907
-9.79065e-07
0.00511827
-7.10352e-07
0.00511768
-5.15764e-07
0.00511725
-3.74495e-07
0.00511694
-2.71599e-07
0.00511672
-1.96555e-07
0.00511655
-1.4199e-07
0.00511644
-1.02539e-07
0.00511635
-7.4042e-08
0.00511629
-5.36893e-08
0.00511625
-3.91855e-08
0.00511621
-2.85944e-08
0.00511619
-2.06817e-08
0.00511617
-1.5124e-08
0.00511616
-1.05861e-08
0.00511615
-8.77847e-09
0.00511614
-5.40881e-09
0.00511614
-5.90772e-09
0.00511613
-6.2845e-09
0.00511613
-6.00631e-09
-1.00956e-08
0.007847
0.00719859
0.00658868
0.00609818
0.00571716
0.00541764
0.00518315
0.00500213
0.0048639
0.00475928
0.00468074
0.00462222
0.00457885
0.00454687
0.00452337
0.00450616
0.00449359
0.00448442
0.00447774
0.00447288
0.00446935
0.00446678
0.00446492
0.00446357
0.00446259
0.00446188
0.00446136
0.00446099
0.00446072
0.00446052
0.00446038
0.00446028
0.0044602
0.00446015
0.00446011
0.00446008
0.00446006
0.00446005
0.00446003
0.00446003
0.00446002
0.00446001
0.00446001
0.00446
6.50873e-05
-6.50873e-05
0.000748965
-0.000683877
0.00145666
-0.000707697
0.00214098
-0.000684315
0.00272744
-0.000586467
0.00319117
-0.000463722
0.00354127
-0.000350102
0.00379865
-0.000257383
0.00398509
-0.000186438
0.00411912
-0.000134031
0.00421518
-9.60553e-05
0.00428398
-6.88037e-05
0.0043333
-4.93193e-05
0.00436869
-3.53923e-05
0.00439412
-2.54319e-05
0.00441243
-1.83047e-05
0.00442563
-1.31975e-05
0.00443515
-9.5262e-06
0.00444203
-6.87844e-06
0.004447
-4.967e-06
0.00445059
-3.58944e-06
0.00445318
-2.59823e-06
0.00445507
-1.88354e-06
0.00445643
-1.36531e-06
0.00445742
-9.87893e-07
0.00445813
-7.13182e-07
0.00445865
-5.14527e-07
0.00445902
-3.72241e-07
0.00445929
-2.70891e-07
0.00445949
-1.98095e-07
0.00445963
-1.44406e-07
0.00445974
-1.04759e-07
0.00445981
-7.53319e-08
0.00445987
-5.33823e-08
0.00445991
-3.76323e-08
0.00445993
-2.68646e-08
0.00445995
-1.9824e-08
0.00445997
-1.48669e-08
0.00445998
-1.1931e-08
0.00445999
-8.23143e-09
0.00446
-7.68123e-09
0.00446
-4.23064e-09
0.00446
-2.20499e-09
0.00446
-2.25409e-09
1.04108e-09
0.000100193
-0.00016528
0.00082679
-0.00141047
0.0016896
-0.00157051
0.00252565
-0.00152036
0.00321191
-0.00127272
0.00373458
-0.00098639
0.00411932
-0.00073484
0.00439822
-0.000536286
0.00459911
-0.000387324
0.0047435
-0.000278426
0.0048473
-0.000199853
0.00492198
-0.00014349
0.00497579
-0.000103125
0.0050146
-7.42027e-05
0.00504263
-5.34604e-05
0.00506289
-3.85682e-05
0.00507755
-2.78588e-05
0.00508817
-2.01399e-05
0.00509585
-1.45656e-05
0.00510142
-1.05373e-05
0.00510546
-7.62804e-06
0.00510839
-5.5273e-06
0.00511052
-4.00804e-06
0.00511206
-2.90611e-06
0.00511317
-2.10521e-06
0.00511398
-1.52341e-06
0.00511457
-1.10228e-06
0.005115
-7.98908e-07
0.00511531
-5.80716e-07
0.00511553
-4.22963e-07
0.0051157
-3.07811e-07
0.00511582
-2.23196e-07
0.0051159
-1.60809e-07
0.00511596
-1.15059e-07
0.00511601
-8.2261e-08
0.00511604
-5.93719e-08
0.00511606
-4.36228e-08
0.00511608
-3.25251e-08
0.00511609
-2.48023e-08
0.0051161
-1.83282e-08
0.00511611
-1.45068e-08
0.00511612
-9.88757e-09
0.00511612
-7.50541e-09
0.00511613
-6.87178e-09
-4.66923e-09
-0.00066377
0.00049849
0.000462361
-0.0025366
0.00172405
-0.0028322
0.00273581
-0.00253213
0.00347124
-0.00200815
0.00397675
-0.0014919
0.0043207
-0.00107878
0.00455735
-0.000772944
0.00472267
-0.000552637
0.00483964
-0.000395398
0.0049232
-0.000283411
0.00498327
-0.000203559
0.00502662
-0.000146479
0.00505799
-0.000105572
0.00508072
-7.61932e-05
0.00509721
-5.50577e-05
0.00510918
-3.98243e-05
0.00511786
-2.88235e-05
0.00512416
-2.08681e-05
0.00512874
-1.51132e-05
0.00513206
-1.09512e-05
0.00513448
-7.94073e-06
0.00513623
-5.76006e-06
0.0051375
-4.17725e-06
0.00513842
-3.02707e-06
0.00513909
-2.19213e-06
0.00513958
-1.58797e-06
0.00513993
-1.15217e-06
0.00514019
-8.37689e-07
0.00514037
-6.09586e-07
0.00514051
-4.43274e-07
0.00514061
-3.21437e-07
0.00514068
-2.31677e-07
0.00514073
-1.65996e-07
0.00514076
-1.18968e-07
0.00514079
-8.60242e-08
0.00514081
-6.32144e-08
0.00514083
-4.71596e-08
0.00514084
-3.53746e-08
0.00514084
-2.66245e-08
0.00514085
-2.04713e-08
0.00514086
-1.51225e-08
0.00514086
-1.14464e-08
0.00514086
-1.09063e-08
-1.04063e-08
0.000619998
-0.000121508
0.00124352
-0.00316013
0.00231445
-0.00390312
0.00329581
-0.00351349
0.00397182
-0.00268416
0.00438253
-0.00190262
0.00462885
-0.0013251
0.00478322
-0.00092731
0.00488544
-0.000654858
0.00495622
-0.000466181
0.00500664
-0.000333834
0.00504311
-0.000240025
0.00506967
-0.000173042
0.00508908
-0.00012498
0.00510327
-9.03847e-05
0.00511364
-6.54276e-05
0.00512121
-4.73922e-05
0.00512673
-3.43416e-05
0.00513075
-2.48913e-05
0.00513368
-1.80465e-05
0.00513582
-1.30883e-05
0.00513737
-9.49477e-06
0.0051385
-6.88773e-06
0.00513932
-4.99497e-06
0.00513991
-3.62101e-06
0.00514035
-2.62491e-06
0.00514066
-1.90399e-06
0.00514089
-1.3826e-06
0.00514106
-1.0048e-06
0.00514118
-7.2996e-07
0.00514127
-5.29571e-07
0.00514133
-3.83431e-07
0.00514137
-2.76748e-07
0.00514141
-1.99326e-07
0.00514143
-1.43977e-07
0.00514145
-1.04655e-07
0.00514146
-7.67698e-08
0.00514147
-5.66053e-08
0.00514148
-4.18052e-08
0.00514148
-3.13113e-08
0.00514149
-2.39294e-08
0.00514149
-1.81933e-08
0.00514149
-1.45608e-08
0.0051415
-1.45938e-08
-1.36712e-08
0.00280495
0.00351492
0.00419973
0.00469025
0.00492491
0.0050163
0.00505235
0.0050707
0.00508384
0.00509508
0.00510487
0.00511313
0.00511985
0.00512517
0.0051293
0.00513244
0.00513481
0.00513658
0.00513789
0.00513886
0.00513958
0.0051401
0.00514048
0.00514076
0.00514097
0.00514111
0.00514122
0.0051413
0.00514136
0.0051414
0.00514143
0.00514145
0.00514147
0.00514148
0.00514149
0.00514149
0.0051415
0.0051415
0.0051415
0.0051415
0.00514151
0.00514151
0.00514151
0.00514151
)
;

boundaryField
{
    inlet
    {
        type            calculated;
        value           nonuniform List<scalar> 5(-0.01 -0.01 -0.01 -0.01 -0.01);
    }
    outlet
    {
        type            calculated;
        value           nonuniform List<scalar> 10(0.00514151 0.0051415 0.00514086 0.00511612 0.00445999 0.00446 0.00511613 0.00514087 0.0051415 0.00514151);
    }
    upperWall
    {
        type            calculated;
        value           uniform 0;
    }
    lowerWall
    {
        type            calculated;
        value           uniform 0;
    }
    frontAndBack
    {
        type            empty;
        value           nonuniform List<scalar> 0();
    }
}


// ************************************************************************* //
