/*--------------------------------*- C++ -*----------------------------------*\
  =========                 |
  \\      /  F ield         | OpenFOAM: The Open Source CFD Toolbox
   \\    /   O peration     | Website:  https://openfoam.org
    \\  /    A nd           | Version:  10
     \\/     M anipulation  |
\*---------------------------------------------------------------------------*/
FoamFile
{
    format      ascii;
    class       volVectorField;
    location    "0.375";
    object      U;
}
// * * * * * * * * * * * * * * * * * * * * * * * * * * * * * * * * * * * * * //

dimensions      [0 1 -1 0 0 0 0];

internalField   nonuniform List<vector> 
475
(
(0.949195 0.0194754 0)
(1.00405 -0.0322492 0)
(0.940651 0.0836867 0)
(1.08858 -0.135374 0)
(0.99045 0.0112222 0)
(0.999437 -0.00138965 0)
(0.980096 0.0189166 0)
(1.07196 -0.0399261 0)
(1.03884 -0.053499 0)
(1.04409 -0.0629315 0)
(0.986743 0.00159496 0)
(0.993206 -0.0280346 0)
(1.05006 -0.0214014 0)
(1.03447 -0.0692674 0)
(1.01808 -0.0959477 0)
(0.988354 -0.0132326 0)
(0.995331 -0.0264694 0)
(1.03947 -0.0407667 0)
(1.02446 -0.0547939 0)
(0.975669 -0.0585813 0)
(0.968977 -0.0101965 0)
(0.95894 -0.022092 0)
(0.96666 -0.0249042 0)
(0.913184 -0.0270953 0)
(0.852508 -0.0281978 0)
(1.14028 -0.255935 0)
(1.2362 -0.333649 0)
(1.09274 -0.366347 0)
(0.874405 -0.320954 0)
(0.720546 -0.237591 0)
(0.62812 -0.167507 0)
(0.575557 -0.119553 0)
(0.547989 -0.0866077 0)
(0.533829 -0.0630609 0)
(0.526263 -0.0459418 0)
(0.52197 -0.0334539 0)
(0.519377 -0.0243461 0)
(0.517728 -0.0177093 0)
(0.51664 -0.0128768 0)
(0.515901 -0.00936012 0)
(0.51539 -0.00680193 0)
(0.515033 -0.00494163 0)
(0.514782 -0.00358938 0)
(0.514605 -0.00260686 0)
(0.514478 -0.00189314 0)
(0.514387 -0.00137466 0)
(0.514321 -0.000997954 0)
(0.514273 -0.00072426 0)
(0.514239 -0.000525515 0)
(0.514215 -0.000381319 0)
(0.514198 -0.000276777 0)
(0.514185 -0.000200982 0)
(0.514176 -0.000145961 0)
(0.514168 -0.00010595 0)
(0.514163 -7.68397e-05 0)
(0.51416 -5.56875e-05 0)
(0.514157 -4.03481e-05 0)
(0.514156 -2.92402e-05 0)
(0.514155 -2.12227e-05 0)
(0.514154 -1.54253e-05 0)
(0.514153 -1.1225e-05 0)
(0.514152 -8.17528e-06 0)
(0.514151 -5.97285e-06 0)
(0.514152 -4.39977e-06 0)
(0.514149 -3.27807e-06 0)
(0.514155 -2.51513e-06 0)
(0.514144 -1.97928e-06 0)
(0.51416 -1.6234e-06 0)
(0.514151 -1.72053e-06 0)
(0.514151 -1.57842e-06 0)
(1.0166 -0.319838 0)
(0.850492 -0.405212 0)
(0.712354 -0.268975 0)
(0.641633 -0.152285 0)
(0.608097 -0.112145 0)
(0.588229 -0.0974491 0)
(0.572229 -0.0827091 0)
(0.558506 -0.0663861 0)
(0.547123 -0.051177 0)
(0.538172 -0.0385148 0)
(0.531477 -0.0285988 0)
(0.526612 -0.0210745 0)
(0.523117 -0.0154581 0)
(0.52061 -0.0113049 0)
(0.518809 -0.00825159 0)
(0.517514 -0.00601479 0)
(0.516581 -0.00437976 0)
(0.51591 -0.00318641 0)
(0.515425 -0.00231666 0)
(0.515075 -0.00168366 0)
(0.51482 -0.00122342 0)
(0.514635 -0.00088887 0)
(0.514501 -0.000645574 0)
(0.514404 -0.000468577 0)
(0.514335 -0.000339887 0)
(0.514285 -0.000246484 0)
(0.514248 -0.000178849 0)
(0.51422 -0.000129945 0)
(0.5142 -9.45384e-05 0)
(0.514186 -6.87797e-05 0)
(0.514176 -4.99304e-05 0)
(0.514169 -3.61071e-05 0)
(0.514164 -2.60091e-05 0)
(0.514161 -1.86902e-05 0)
(0.514158 -1.34628e-05 0)
(0.514155 -9.77971e-06 0)
(0.514153 -7.2004e-06 0)
(0.514151 -5.37053e-06 0)
(0.514152 -4.03843e-06 0)
(0.514149 -3.03619e-06 0)
(0.514155 -2.32117e-06 0)
(0.514143 -1.79017e-06 0)
(0.514159 -1.46291e-06 0)
(0.51415 -1.55672e-06 0)
(0.51415 -1.63256e-06 0)
(1.00635 -0.0921122 0)
(0.918412 -0.119264 0)
(0.797094 -0.156612 0)
(0.717095 -0.155061 0)
(0.671355 -0.126287 0)
(0.635019 -0.0949133 0)
(0.603681 -0.070105 0)
(0.57945 -0.0520456 0)
(0.561692 -0.0388418 0)
(0.548738 -0.0289716 0)
(0.539287 -0.0215252 0)
(0.532404 -0.0159196 0)
(0.527397 -0.0117255 0)
(0.523756 -0.00860788 0)
(0.521109 -0.00630285 0)
(0.519185 -0.00460536 0)
(0.517788 -0.00335915 0)
(0.516774 -0.00244689 0)
(0.516038 -0.00178094 0)
(0.515504 -0.00129571 0)
(0.515115 -0.000942327 0)
(0.514832 -0.000684826 0)
(0.514628 -0.000497156 0)
(0.51448 -0.000360584 0)
(0.514372 -0.00026151 0)
(0.514294 -0.000189862 0)
(0.514237 -0.000138076 0)
(0.514195 -0.000100516 0)
(0.514165 -7.30993e-05 0)
(0.514143 -5.29814e-05 0)
(0.514128 -3.82296e-05 0)
(0.514117 -2.75132e-05 0)
(0.514109 -1.98375e-05 0)
(0.514103 -1.43929e-05 0)
(0.514098 -1.0535e-05 0)
(0.514095 -7.76499e-06 0)
(0.514092 -5.72194e-06 0)
(0.51409 -4.18139e-06 0)
(0.51409 -3.00979e-06 0)
(0.514086 -2.18377e-06 0)
(0.514092 -1.62727e-06 0)
(0.51408 -1.32414e-06 0)
(0.514096 -1.17161e-06 0)
(0.514086 -1.40201e-06 0)
(0.514086 -1.5048e-06 0)
(0.934226 -0.0932045 0)
(0.887422 -0.11904 0)
(0.816305 -0.104617 0)
(0.741556 -0.0774315 0)
(0.683885 -0.0582465 0)
(0.641536 -0.0462336 0)
(0.60921 -0.0367569 0)
(0.584438 -0.0286654 0)
(0.565673 -0.0219963 0)
(0.551551 -0.0166725 0)
(0.540993 -0.012513 0)
(0.533156 -0.00931865 0)
(0.527372 -0.00689838 0)
(0.523119 -0.00508325 0)
(0.520002 -0.00373229 0)
(0.517722 -0.00273251 0)
(0.516058 -0.00199603 0)
(0.514846 -0.0014556 0)
(0.513963 -0.00106027 0)
(0.513321 -0.000771631 0)
(0.512853 -0.000561084 0)
(0.512513 -0.000407592 0)
(0.512266 -0.000295833 0)
(0.512087 -0.000214631 0)
(0.511957 -0.000155759 0)
(0.511863 -0.000113115 0)
(0.511794 -8.21825e-05 0)
(0.511744 -5.96715e-05 0)
(0.511708 -4.32401e-05 0)
(0.511682 -3.12573e-05 0)
(0.511663 -2.25727e-05 0)
(0.511649 -1.63226e-05 0)
(0.51164 -1.18373e-05 0)
(0.511632 -8.61463e-06 0)
(0.511627 -6.28806e-06 0)
(0.511623 -4.59032e-06 0)
(0.51162 -3.32636e-06 0)
(0.511617 -2.42054e-06 0)
(0.511617 -1.72292e-06 0)
(0.511613 -1.37262e-06 0)
(0.511619 -9.44021e-07 0)
(0.511607 -9.13278e-07 0)
(0.511623 -8.63822e-07 0)
(0.511612 -9.25092e-07 0)
(0.511612 -1.36196e-06 0)
(0.810212 -0.0241449 0)
(0.757992 -0.0232927 0)
(0.692407 -0.0243823 0)
(0.633138 -0.0220222 0)
(0.588486 -0.0180886 0)
(0.554985 -0.0143371 0)
(0.528788 -0.0111292 0)
(0.508301 -0.00852912 0)
(0.492563 -0.00649569 0)
(0.48061 -0.00491869 0)
(0.471597 -0.00369879 0)
(0.464852 -0.00276229 0)
(0.459837 -0.00205048 0)
(0.456128 -0.00151448 0)
(0.453396 -0.00111401 0)
(0.451392 -0.00081667 0)
(0.449926 -0.000597029 0)
(0.448855 -0.000435513 0)
(0.448075 -0.000317196 0)
(0.447507 -0.000230762 0)
(0.447094 -0.000167717 0)
(0.446794 -0.000121767 0)
(0.446576 -8.83137e-05 0)
(0.446418 -6.40079e-05 0)
(0.446303 -4.63971e-05 0)
(0.44622 -3.36599e-05 0)
(0.446159 -2.44374e-05 0)
(0.446115 -1.7731e-05 0)
(0.446084 -1.28302e-05 0)
(0.446061 -9.24635e-06 0)
(0.446044 -6.64335e-06 0)
(0.446033 -4.77711e-06 0)
(0.446024 -3.45834e-06 0)
(0.446018 -2.5381e-06 0)
(0.446013 -1.88117e-06 0)
(0.446009 -1.3881e-06 0)
(0.446007 -1.00886e-06 0)
(0.446005 -7.4705e-07 0)
(0.446004 -5.09567e-07 0)
(0.446001 -4.33404e-07 0)
(0.446006 -1.99977e-07 0)
(0.445996 -2.77185e-07 0)
(0.446009 -3.04282e-07 0)
(0.446001 -3.36976e-07 0)
(0.445999 -7.62218e-07 0)
(-0.0102054 -0.0216648 0)
(0.0284342 -0.0322787 0)
(0.112192 -0.0331787 0)
(0.180443 -0.0324659 0)
(0.244081 -0.0280643 0)
(0.296763 -0.0223233 0)
(0.337466 -0.0169101 0)
(0.367758 -0.0124473 0)
(0.389825 -0.00901465 0)
(0.405717 -0.00647346 0)
(0.417105 -0.00463161 0)
(0.425252 -0.0033116 0)
(0.431081 -0.00236988 0)
(0.435259 -0.00169806 0)
(0.438259 -0.00121818 0)
(0.440415 -0.000875292 0)
(0.441966 -0.000630213 0)
(0.443083 -0.000454569 0)
(0.443891 -0.000328079 0)
(0.444476 -0.000236683 0)
(0.444898 -0.000170726 0)
(0.445202 -0.000123335 0)
(0.445422 -8.93488e-05 0)
(0.445581 -6.48605e-05 0)
(0.445697 -4.70435e-05 0)
(0.445781 -3.39829e-05 0)
(0.445843 -2.44226e-05 0)
(0.445887 -1.75132e-05 0)
(0.445918 -1.26121e-05 0)
(0.44594 -9.1647e-06 0)
(0.445956 -6.72135e-06 0)
(0.445968 -4.94438e-06 0)
(0.445977 -3.60611e-06 0)
(0.445984 -2.58615e-06 0)
(0.445989 -1.8441e-06 0)
(0.445992 -1.3337e-06 0)
(0.445995 -9.95723e-07 0)
(0.445996 -7.41649e-07 0)
(0.445998 -6.01696e-07 0)
(0.445997 -3.85286e-07 0)
(0.446002 -3.87677e-07 0)
(0.445995 -1.55095e-07 0)
(0.446007 -4.45914e-08 0)
(0.446002 -2.30936e-09 0)
(0.446 3.24324e-07 0)
(-0.00870147 0.0163414 0)
(0.0307899 -0.0962149 0)
(0.130519 -0.108131 0)
(0.211979 -0.106887 0)
(0.288018 -0.091514 0)
(0.34855 -0.0721548 0)
(0.393796 -0.0544073 0)
(0.426807 -0.0400162 0)
(0.450619 -0.0290305 0)
(0.46772 -0.0209131 0)
(0.47999 -0.0150208 0)
(0.488801 -0.0107824 0)
(0.495138 -0.00774428 0)
(0.499704 -0.00556738 0)
(0.502999 -0.00400684 0)
(0.505377 -0.00288775 0)
(0.507095 -0.00208436 0)
(0.508338 -0.00150611 0)
(0.509239 -0.00108864 0)
(0.509893 -0.000786892 0)
(0.510367 -0.00056907 0)
(0.510709 -0.000412108 0)
(0.510956 -0.000298885 0)
(0.511135 -0.00021684 0)
(0.511266 -0.000157088 0)
(0.511362 -0.000113533 0)
(0.511432 -8.19539e-05 0)
(0.511482 -5.92606e-05 0)
(0.511518 -4.30551e-05 0)
(0.511543 -3.14398e-05 0)
(0.511562 -2.29981e-05 0)
(0.511575 -1.67514e-05 0)
(0.511586 -1.20646e-05 0)
(0.511593 -8.56562e-06 0)
(0.511599 -6.04108e-06 0)
(0.511603 -4.30063e-06 0)
(0.511606 -3.1485e-06 0)
(0.511607 -2.35544e-06 0)
(0.511609 -1.85194e-06 0)
(0.511608 -1.33778e-06 0)
(0.511615 -1.1503e-06 0)
(0.511605 -7.17155e-07 0)
(0.51162 -4.5982e-07 0)
(0.511613 -4.28677e-07 0)
(0.511613 -7.14311e-08 0)
(-0.0721119 -0.0647943 0)
(-0.0438512 -0.204433 0)
(0.127465 -0.21291 0)
(0.225183 -0.19753 0)
(0.312143 -0.162442 0)
(0.374089 -0.124269 0)
(0.4161 -0.0917507 0)
(0.444787 -0.0666034 0)
(0.464656 -0.0479746 0)
(0.478605 -0.0344547 0)
(0.488506 -0.0247357 0)
(0.495593 -0.017773 0)
(0.500695 -0.0127858 0)
(0.50438 -0.00920971 0)
(0.507047 -0.00664244 0)
(0.508978 -0.00479706 0)
(0.510378 -0.00346814 0)
(0.511394 -0.00250898 0)
(0.512133 -0.00181562 0)
(0.51267 -0.00131435 0)
(0.513059 -0.000952192 0)
(0.51334 -0.000690465 0)
(0.513543 -0.000500894 0)
(0.513692 -0.000363176 0)
(0.5138 -0.000263016 0)
(0.51388 -0.00019035 0)
(0.513937 -0.000137885 0)
(0.513978 -0.000100142 0)
(0.514007 -7.29461e-05 0)
(0.514028 -5.31976e-05 0)
(0.514044 -3.86993e-05 0)
(0.514056 -2.79804e-05 0)
(0.514064 -2.0088e-05 0)
(0.514071 -1.43701e-05 0)
(0.514075 -1.03129e-05 0)
(0.514078 -7.47456e-06 0)
(0.51408 -5.49345e-06 0)
(0.514081 -4.07931e-06 0)
(0.514084 -3.06076e-06 0)
(0.514082 -2.26734e-06 0)
(0.514089 -1.73295e-06 0)
(0.514079 -1.26848e-06 0)
(0.514094 -9.69371e-07 0)
(0.514087 -9.73543e-07 0)
(0.514087 -9.13983e-07 0)
(0.0741461 0.195816 0)
(0.055255 -0.27039 0)
(0.197214 -0.335371 0)
(0.281795 -0.303355 0)
(0.364002 -0.236585 0)
(0.419106 -0.17202 0)
(0.451567 -0.122423 0)
(0.471203 -0.0868891 0)
(0.483817 -0.0618237 0)
(0.492352 -0.0441474 0)
(0.498341 -0.0316341 0)
(0.502636 -0.0227331 0)
(0.505753 -0.0163731 0)
(0.508025 -0.0118125 0)
(0.509684 -0.00853412 0)
(0.510894 -0.0061728 0)
(0.511777 -0.00446872 0)
(0.512423 -0.00323661 0)
(0.512894 -0.00234468 0)
(0.513238 -0.00169896 0)
(0.513487 -0.00123171 0)
(0.513667 -0.000893577 0)
(0.513798 -0.0006485 0)
(0.513894 -0.000470472 0)
(0.513965 -0.000340991 0)
(0.514016 -0.000246939 0)
(0.514053 -0.000178876 0)
(0.514079 -0.000129822 0)
(0.514098 -9.45e-05 0)
(0.514112 -6.89279e-05 0)
(0.514122 -5.02067e-05 0)
(0.51413 -3.63605e-05 0)
(0.514135 -2.61253e-05 0)
(0.51414 -1.86481e-05 0)
(0.514142 -1.33175e-05 0)
(0.514144 -9.61139e-06 0)
(0.514146 -7.07436e-06 0)
(0.514146 -5.31729e-06 0)
(0.514148 -4.07732e-06 0)
(0.514146 -3.12055e-06 0)
(0.514153 -2.41313e-06 0)
(0.514142 -1.7926e-06 0)
(0.514158 -1.35519e-06 0)
(0.51415 -1.24305e-06 0)
(0.51415 -1.19525e-06 0)
(0.406523 -0.245255 0)
(0.230434 -0.416452 0)
(0.421347 -0.49568 0)
(0.44167 -0.429356 0)
(0.472941 -0.312439 0)
(0.494347 -0.212118 0)
(0.502509 -0.143067 0)
(0.505695 -0.0981487 0)
(0.507493 -0.0686157 0)
(0.508839 -0.0486567 0)
(0.509955 -0.0348196 0)
(0.51089 -0.0250535 0)
(0.511655 -0.0180847 0)
(0.512265 -0.0130798 0)
(0.512737 -0.00947134 0)
(0.513097 -0.00686354 0)
(0.51337 -0.004976 0)
(0.513576 -0.00360854 0)
(0.513731 -0.00261743 0)
(0.513844 -0.00189895 0)
(0.513926 -0.00137794 0)
(0.513986 -0.000999916 0)
(0.51403 -0.000725465 0)
(0.514063 -0.000526187 0)
(0.514088 -0.000381592 0)
(0.514106 -0.00027681 0)
(0.514118 -0.00020095 0)
(0.514127 -0.000145999 0)
(0.514132 -0.000106104 0)
(0.514137 -7.70579e-05 0)
(0.514141 -5.58655e-05 0)
(0.514144 -4.04086e-05 0)
(0.514146 -2.91815e-05 0)
(0.514148 -2.10935e-05 0)
(0.514149 -1.52826e-05 0)
(0.514149 -1.11105e-05 0)
(0.514149 -8.11538e-06 0)
(0.514149 -5.96715e-06 0)
(0.51415 -4.42323e-06 0)
(0.514148 -3.29706e-06 0)
(0.514155 -2.5104e-06 0)
(0.514144 -1.94693e-06 0)
(0.51416 -1.56306e-06 0)
(0.514151 -1.60702e-06 0)
(0.514151 -1.47346e-06 0)
)
;

boundaryField
{
    inlet
    {
        type            fixedValue;
        value           uniform (1 0 0);
    }
    outlet
    {
        type            zeroGradient;
    }
    upperWall
    {
        type            noSlip;
    }
    lowerWall
    {
        type            noSlip;
    }
    frontAndBack
    {
        type            empty;
    }
}


// ************************************************************************* //
