/*--------------------------------*- C++ -*----------------------------------*\
  =========                 |
  \\      /  F ield         | OpenFOAM: The Open Source CFD Toolbox
   \\    /   O peration     | Website:  https://openfoam.org
    \\  /    A nd           | Version:  10
     \\/     M anipulation  |
\*---------------------------------------------------------------------------*/
FoamFile
{
    format      ascii;
    class       surfaceScalarField;
    location    "1.2";
    object      phi;
}
// * * * * * * * * * * * * * * * * * * * * * * * * * * * * * * * * * * * * * //

dimensions      [0 3 -1 0 0 0 0];

internalField   nonuniform List<scalar> 
890
(
0.00979774
0.000202263
0.00961891
0.000178826
0.00937747
0.000241439
0.00937932
-1.844e-06
5.9765e-05
0.00931955
0.0101503
5.20015e-05
0.0102312
9.78875e-05
0.0105327
-6.0102e-05
0.01055
-1.90543e-05
-0.000318063
0.0109278
0.0100772
-2.52265e-05
0.0102616
-8.64653e-05
0.0103948
-0.000193325
0.0105561
-0.000180393
-0.000357676
0.0105958
0.0101054
-0.000130664
0.0102167
-0.000197726
0.0103059
-0.00028249
0.0104304
-0.000304947
-0.000317712
0.0103905
0.00986934
0.00967161
0.00938912
0.00908417
0.00876646
0.010206
-3.37182e-06
-0.000883124
0.0106675
-0.000859973
0.000398543
0.011062
-0.00218879
0.00179426
0.0111043
-0.00339914
0.00335688
0.0103414
-0.00379385
0.00455674
0.00908236
-0.00355144
0.00481046
0.0080892
-0.00295486
0.00394802
0.00753391
-0.0020353
0.00259059
0.0070965
-0.00108602
0.00152342
0.00664053
-0.000474539
0.000930517
0.00622798
-0.000206601
0.000619144
0.00591627
-0.000121152
0.000432861
0.00570789
-9.63358e-05
0.000304723
0.00557909
-8.23065e-05
0.000211104
0.00550325
-6.7435e-05
0.000143276
0.00545996
-5.21584e-05
9.54504e-05
0.0054358
-3.84235e-05
6.25845e-05
0.00542251
-2.71898e-05
4.04779e-05
0.00541518
-1.85509e-05
2.58753e-05
0.00541105
-1.22224e-05
1.63501e-05
0.00540867
-7.78249e-06
1.01646e-05
0.00540727
-4.77046e-06
6.17333e-06
0.00540643
-2.78654e-06
3.6257e-06
0.00540592
-1.51639e-06
2.02374e-06
0.00540562
-7.28669e-07
1.0366e-06
0.00540543
-2.57014e-07
4.4502e-07
0.00540531
9.46629e-09
1.04572e-07
0.00540524
1.48767e-07
-7.62903e-08
0.0054052
2.13018e-07
-1.72139e-07
0.00540518
2.29784e-07
-2.06366e-07
0.00540516
2.20388e-07
-2.07603e-07
0.00540516
1.9851e-07
-1.92003e-07
0.00540515
1.71832e-07
-1.68987e-07
0.00540515
1.44328e-07
-1.43843e-07
0.00540515
1.18505e-07
-1.19185e-07
0.00540516
9.54519e-08
-9.67568e-08
0.00540516
7.5452e-08
-7.69613e-08
0.00540516
5.89316e-08
-6.03271e-08
0.00540516
4.53367e-08
-4.66858e-08
0.00540516
3.37305e-08
-3.45276e-08
0.00540516
2.57705e-08
-2.63373e-08
0.00540516
1.7361e-08
-1.79636e-08
0.00540516
9.94251e-09
-1.01824e-08
0.00540516
7.12478e-09
-7.39044e-09
-3.19916e-09
2.55198e-09
0.0113505
-0.000426069
0.0111576
-0.000667067
0.0105622
-0.00159337
0.00956345
-0.00240044
0.00793432
-0.00216472
0.00604334
-0.00166047
0.00480705
-0.00171856
0.00448953
-0.00171778
0.00472011
-0.00131659
0.00504517
-0.000799602
0.00527276
-0.000434192
0.00539062
-0.000239011
0.00543857
-0.000144286
0.00545138
-9.51199e-05
0.00544913
-6.51811e-05
0.00544155
-4.45825e-05
0.00543299
-2.98548e-05
0.00542522
-1.94283e-05
0.00541891
-1.22366e-05
0.00541414
-7.45712e-06
0.00541077
-4.40515e-06
0.00540846
-2.4636e-06
0.00540692
-1.24886e-06
0.00540591
-5.0854e-07
0.00540527
-8.07912e-08
0.00540486
1.50433e-07
0.0054046
2.70863e-07
0.00540444
3.11313e-07
0.00540434
3.0914e-07
0.00540428
2.84649e-07
0.00540425
2.50267e-07
0.00540424
2.13184e-07
0.00540423
1.77216e-07
0.00540423
1.44129e-07
0.00540424
1.15405e-07
0.00540424
9.09503e-08
0.00540425
7.10405e-08
0.00540425
5.51533e-08
0.00540425
4.20079e-08
0.00540426
3.18841e-08
0.00540426
2.39067e-08
0.00540426
1.5772e-08
0.00540426
9.35845e-09
0.00540426
6.12849e-09
-3.76292e-09
0.0107337
-0.000564
0.0108184
-0.000751813
0.010428
-0.00120296
0.00973228
-0.00170471
0.00932764
-0.00176008
0.00906351
-0.00139633
0.00842542
-0.00108047
0.00754266
-0.000835025
0.00677616
-0.000550093
0.00627143
-0.000294872
0.00596998
-0.000132744
0.0057832
-5.2229e-05
0.00565795
-1.90294e-05
0.00557023
-7.40563e-06
0.00550885
-3.79622e-06
0.00546686
-2.5925e-06
0.00543893
-1.92775e-06
0.00542082
-1.3157e-06
0.00540929
-7.10048e-07
0.00540201
-1.81215e-07
0.00539739
2.22553e-07
0.00539438
5.4153e-07
0.00539244
6.90413e-07
0.0053912
7.3186e-07
0.00539041
7.08114e-07
0.00538991
6.48159e-07
0.00538961
5.71597e-07
0.00538944
4.88879e-07
0.00538934
4.08985e-07
0.00538928
3.3644e-07
0.00538926
2.73055e-07
0.00538926
2.18807e-07
0.00538926
1.73458e-07
0.00538927
1.35422e-07
0.00538928
1.05522e-07
0.00538929
8.06311e-08
0.0053893
6.23114e-08
0.00538931
4.76723e-08
0.00538931
3.52125e-08
0.00538932
2.83345e-08
0.00538932
1.93486e-08
0.00538932
1.25242e-08
0.00538932
9.28362e-09
0.00538933
4.18689e-09
-4.14304e-09
0.0102699
-0.000443454
0.0101594
-0.00064129
0.00974916
-0.000792727
0.00891916
-0.000874715
0.00806112
-0.000902037
0.00745617
-0.000791382
0.00692419
-0.000548491
0.0063457
-0.000256536
0.00585384
-5.82377e-05
0.00554176
1.72126e-05
0.00538215
2.68621e-05
0.0053069
2.30231e-05
0.00527059
1.72823e-05
0.00525067
1.25065e-05
0.00523777
9.10849e-06
0.00522829
6.8886e-06
0.0052209
5.46578e-06
0.00521508
4.49985e-06
0.0052106
3.76631e-06
0.00520728
3.1466e-06
0.0052049
2.59444e-06
0.00520334
2.10836e-06
0.00520234
1.68685e-06
0.00520174
1.33606e-06
0.00520139
1.05106e-06
0.00520122
8.22276e-07
0.00520115
6.40523e-07
0.00520114
4.96944e-07
0.00520117
3.84387e-07
0.00520121
2.96531e-07
0.00520125
2.28093e-07
0.0052013
1.74384e-07
0.00520134
1.3278e-07
0.00520137
9.96818e-08
0.0052014
7.56125e-08
0.00520143
5.56592e-08
0.00520145
4.29125e-08
0.00520146
3.23913e-08
0.00520147
2.28672e-08
0.00520148
2.06934e-08
0.00520149
1.144e-08
0.00520149
7.79419e-09
0.0052015
8.13987e-09
0.0052015
1.29523e-09
-4.01782e-09
0.00832301
0.00768172
0.00688899
0.00601427
0.00511224
0.00432086
0.00377236
0.00351583
0.00345759
0.0034748
0.00350167
0.00352469
0.00354197
0.00355448
0.00356359
0.00357048
0.00357594
0.00358044
0.00358421
0.00358735
0.00358995
0.00359206
0.00359374
0.00359508
0.00359613
0.00359695
0.00359759
0.00359809
0.00359847
0.00359877
0.003599
0.00359917
0.00359931
0.00359941
0.00359948
0.00359954
0.00359958
0.00359961
0.00359964
0.00359966
0.00359967
0.00359968
0.00359968
0.00359968
-0.000866168
0.000866168
-0.00162378
0.000757611
-0.00201452
0.00039074
-0.00180253
-0.000211993
-0.00104951
-0.000753011
-3.04946e-05
-0.00101902
0.000991462
-0.00102196
0.00185401
-0.000862544
0.00250182
-0.000647816
0.0029477
-0.000445874
0.00323392
-0.000286224
0.00340738
-0.000173456
0.00350741
-0.000100038
0.00356242
-5.50105e-05
0.00359103
-2.86085e-05
0.00360475
-1.37148e-05
0.00361039
-5.64515e-06
0.00361189
-1.49489e-06
0.00361142
4.67983e-07
0.00361003
1.38834e-06
0.00360839
1.64213e-06
0.0036068
1.59258e-06
0.00360538
1.41259e-06
0.00360419
1.19146e-06
0.00360322
9.74649e-07
0.00360243
7.82597e-07
0.00360181
6.22642e-07
0.00360132
4.91185e-07
0.00360094
3.83504e-07
0.00360064
2.95913e-07
0.00360042
2.25873e-07
0.00360024
1.71581e-07
0.00360011
1.29957e-07
0.00360001
9.95831e-08
0.00359994
7.55561e-08
0.00359988
5.8866e-08
0.00359984
4.35957e-08
0.0035998
3.23957e-08
0.00359978
2.50972e-08
0.00359976
1.42718e-08
0.00359975
1.33997e-08
0.00359974
9.61975e-09
0.00359974
2.46214e-09
0.00359973
6.19165e-09
4.17998e-09
-0.000675901
0.00154207
-0.00173529
0.001817
-0.00209939
0.000754837
-0.00172082
-0.000590558
-0.000751148
-0.00172269
0.000501004
-0.00227117
0.00173616
-0.00225711
0.00277412
-0.0019005
0.00356476
-0.00143846
0.00412759
-0.00100871
0.00450964
-0.000668265
0.0047609
-0.000424717
0.00492301
-0.000262147
0.00502645
-0.000158451
0.00509202
-9.41772e-05
0.00513342
-5.51182e-05
0.0051595
-3.17278e-05
0.00517588
-1.78716e-05
0.00518609
-9.73921e-06
0.00519247
-4.99585e-06
0.00519641
-2.29557e-06
0.0051988
-8.03336e-07
0.00520023
-1.71912e-08
0.00520106
3.63777e-07
0.00520152
5.17872e-07
0.00520175
5.48058e-07
0.00520185
5.22858e-07
0.00520188
4.6699e-07
0.00520186
3.99309e-07
0.00520183
3.30716e-07
0.00520178
2.68006e-07
0.00520174
2.14511e-07
0.0052017
1.70227e-07
0.00520166
1.35081e-07
0.00520163
1.05882e-07
0.00520161
8.33761e-08
0.00520159
6.35177e-08
0.00520157
4.78856e-08
0.00520156
3.65556e-08
0.00520155
2.41875e-08
0.00520155
1.9482e-08
0.00520154
1.42581e-08
0.00520154
6.36421e-09
0.00520154
7.25126e-09
2.57996e-09
-0.00116095
0.00270302
-0.00175483
0.00241088
-0.0015996
0.000599614
-0.000900919
-0.00128924
0.000244118
-0.00286772
0.00149923
-0.00352628
0.00260291
-0.0033608
0.00345275
-0.00275034
0.0040774
-0.00206311
0.00451831
-0.00144962
0.00481655
-0.000966509
0.00501269
-0.000620849
0.00514075
-0.000390208
0.00522477
-0.000242472
0.00528028
-0.000149689
0.00531715
-9.19879e-05
0.00534173
-5.63057e-05
0.0053581
-3.4248e-05
0.00536898
-2.06176e-05
0.00537619
-1.22097e-05
0.00538095
-7.05272e-06
0.00538407
-3.91865e-06
0.00538609
-2.03962e-06
0.00538739
-9.34446e-07
0.00538821
-3.03342e-07
0.00538873
2.45508e-08
0.00538905
2.08761e-07
0.00538923
2.81467e-07
0.00538934
2.94553e-07
0.00538939
2.76336e-07
0.00538942
2.44312e-07
0.00538942
2.08638e-07
0.00538942
1.74179e-07
0.00538941
1.43329e-07
0.0053894
1.15874e-07
0.00538939
9.2695e-08
0.00538938
7.23061e-08
0.00538937
5.55164e-08
0.00538937
4.23863e-08
0.00538936
3.024e-08
0.00538936
2.30699e-08
0.00538936
1.65199e-08
0.00538935
9.00435e-09
0.00538935
7.63565e-09
2.25537e-10
-0.000489404
0.00319242
0.000315509
0.00160597
0.00120355
-0.000288425
0.00220433
-0.00229002
0.0032653
-0.0039287
0.00426692
-0.0045279
0.0048802
-0.00397408
0.00510959
-0.00297973
0.00516903
-0.00212255
0.00520302
-0.00148361
0.00524294
-0.00100642
0.00528087
-0.000658775
0.00531173
-0.000421069
0.00533549
-0.000266232
0.0053537
-0.000167906
0.00536768
-0.000105959
0.00537823
-6.68638e-05
0.00538605
-4.20654e-05
0.00539172
-2.62874e-05
0.00539576
-1.62512e-05
0.0053986
-9.88561e-06
0.00540055
-5.87224e-06
0.00540188
-3.36588e-06
0.00540276
-1.82155e-06
0.00540335
-8.88641e-07
0.00540372
-3.43127e-07
0.00540396
-3.25953e-08
0.00540411
1.26629e-07
0.0054042
2.02516e-07
0.00540426
2.23405e-07
0.00540429
2.16286e-07
0.0054043
1.95827e-07
0.0054043
1.70132e-07
0.0054043
1.43866e-07
0.0054043
1.18823e-07
0.00540429
9.62905e-08
0.00540429
7.61211e-08
0.00540429
5.91112e-08
0.00540428
4.53743e-08
0.00540428
3.31305e-08
0.00540428
2.51997e-08
0.00540428
1.77076e-08
0.00540428
1.00343e-08
0.00540428
7.78816e-09
-1.35383e-09
0.0023093
0.00431381
0.00581964
0.00688651
0.00751454
0.00779711
0.00777105
0.00738191
0.00678278
0.00622969
0.00584241
0.00561649
0.00550015
0.00544502
0.00542039
0.00540988
0.0054056
0.00540401
0.0054036
0.0054037
0.00540398
0.00540428
0.00540454
0.00540474
0.00540489
0.00540499
0.00540506
0.00540511
0.00540514
0.00540516
0.00540517
0.00540517
0.00540517
0.00540518
0.00540517
0.00540517
0.00540517
0.00540517
0.00540517
0.00540517
0.00540517
0.00540517
0.00540517
0.00540517
)
;

boundaryField
{
    inlet
    {
        type            calculated;
        value           nonuniform List<scalar> 5(-0.01 -0.01 -0.01 -0.01 -0.01);
    }
    outlet
    {
        type            calculated;
        value           nonuniform List<scalar> 10(0.00540516 0.00540426 0.00538933 0.0052015 0.00359968 0.00359973 0.00520154 0.00538935 0.00540428 0.00540517);
    }
    upperWall
    {
        type            calculated;
        value           uniform 0;
    }
    lowerWall
    {
        type            calculated;
        value           uniform 0;
    }
    frontAndBack
    {
        type            empty;
        value           nonuniform List<scalar> 0();
    }
}


// ************************************************************************* //
