/*--------------------------------*- C++ -*----------------------------------*\
  =========                 |
  \\      /  F ield         | OpenFOAM: The Open Source CFD Toolbox
   \\    /   O peration     | Website:  https://openfoam.org
    \\  /    A nd           | Version:  10
     \\/     M anipulation  |
\*---------------------------------------------------------------------------*/
FoamFile
{
    format      ascii;
    class       volScalarField;
    location    "4.325";
    object      p;
}
// * * * * * * * * * * * * * * * * * * * * * * * * * * * * * * * * * * * * * //

dimensions      [0 2 -2 0 0 0 0];

internalField   nonuniform List<scalar> 
400
(
9.20396e-09
-2.83648e-05
-4.53581e-06
4.7097e-05
0.000132749
0.000253091
0.000408813
0.000600428
0.000827639
0.00108881
0.00138045
0.00169666
0.00202858
0.00236407
0.00268777
0.00298173
0.00322619
0.00340197
0.0035055
0.00348871
2.88359e-05
-5.06664e-07
2.51759e-05
7.51094e-05
0.000156995
0.000272143
0.000421671
0.000606473
0.000826624
0.0010809
0.00136624
0.00167685
0.00200497
0.00233847
0.00266206
0.00295763
0.00320486
0.00338434
0.00349365
0.00347555
1.16022e-06
-3.35311e-05
-9.50096e-06
3.75758e-05
0.00011619
0.000227898
0.00037424
0.000556695
0.000776031
0.00103177
0.00132158
0.00164111
0.00198235
0.00233328
0.00267791
0.00299657
0.00326617
0.00346351
0.00358494
0.00356174
-6.05532e-05
-9.95914e-05
-7.79175e-05
-3.47001e-05
3.94876e-05
0.000146606
0.00028888
0.000468689
0.000687884
0.000947219
0.00124566
0.00157968
0.00194322
0.00232408
0.00270527
0.00306427
0.00337337
0.00360298
0.00374669
0.00372141
-0.000162065
-0.000205716
-0.000187233
-0.000148923
-8.02894e-05
2.11559e-05
0.00015853
0.000335423
0.000555163
0.000820246
0.00113153
0.00148729
0.0018834
0.00230804
0.0027434
0.00316378
0.00353482
0.00381629
0.0039963
0.00397159
-0.000303318
-0.000352471
-0.000338162
-0.000306211
-0.00024493
-0.000151214
-2.08738e-05
0.00015118
0.000370201
0.000641021
0.000967028
0.00134825
0.0017874
0.00227058
0.00278078
0.00328881
0.00375168
0.0041131
0.00435048
0.00433126
-0.000484095
-0.000539934
-0.000531002
-0.000507421
-0.000456185
-0.000373552
-0.000254131
-9.10865e-05
0.000123218
0.000396797
0.000737365
0.00115175
0.00163482
0.00218923
0.00279701
0.00342548
0.00402113
0.00450504
0.00483316
0.00483182
-0.000704444
-0.000768375
-0.000766262
-0.000753629
-0.000716084
-0.000649324
-0.000546749
-0.000399653
-0.000197748
7.06193e-05
0.000417815
0.000855243
0.00139064
0.00202854
0.00275792
0.00354675
0.00433104
0.00500331
0.00547707
0.00552555
-0.00096443
-0.001038
-0.00104425
-0.00104559
-0.00102625
-0.000981608
-0.00090401
-0.000782968
-0.000605455
-0.00035575
-1.56025e-05
0.000434659
0.00101322
0.0017366
0.00260703
0.00360062
0.00464748
0.00560897
0.00632318
0.00650274
-0.00126413
-0.00134891
-0.00136488
-0.00138334
-0.00138732
-0.00137227
-0.00132992
-0.00124838
-0.00111221
-0.000901713
-0.000592245
-0.00015407
0.000446789
0.00123721
0.00225225
0.00348928
0.00488918
0.00629024
0.00741782
0.00792518
-0.00160387
-0.0017013
-0.00172756
-0.00176585
-0.00179824
-0.00182098
-0.0018258
-0.00180023
-0.0017274
-0.00158476
-0.00134243
-0.00096134
-0.000392956
0.000418267
0.0015453
0.00303224
0.00487402
0.00692637
0.00877691
0.0100753
-0.00198497
-0.00209592
-0.00213122
-0.00219061
-0.00225556
-0.00232394
-0.00238845
-0.00243721
-0.00245366
-0.00241486
-0.00228876
-0.00202989
-0.00157376
-0.000831979
0.000285958
0.00192683
0.00421058
0.00713319
0.0102053
0.0132501
-0.00241126
-0.00253525
-0.00257479
-0.00265352
-0.00275258
-0.00287263
-0.00300826
-0.00314944
-0.00328223
-0.0033873
-0.0034369
-0.00338975
-0.0031824
-0.00272026
-0.0018739
-0.000465971
0.00195886
0.00572934
0.0106437
0.0167249
-0.00289038
-0.0030199
-0.00305001
-0.0031413
-0.00327437
-0.00345131
-0.00366765
-0.0039163
-0.00418885
-0.00447425
-0.00475701
-0.0050143
-0.00521119
-0.00528961
-0.0051691
-0.00468851
-0.0033973
-0.000331825
0.00551569
0.0158104
-0.00345245
-0.00359889
-0.00360807
-0.00370742
-0.00385803
-0.00407418
-0.00435962
-0.00471424
-0.00513703
-0.00562888
-0.0061961
-0.00685249
-0.00762914
-0.00859245
-0.00993117
-0.0119396
-0.0147428
-0.0143424
-0.00903232
0.00625882
-0.00417496
-0.004117
-0.00403625
-0.00407347
-0.00424351
-0.00453467
-0.00493394
-0.0054314
-0.00602727
-0.00673237
-0.00757717
-0.00862485
-0.0100095
-0.0119538
-0.0150986
-0.0202812
-0.0287942
-0.033556
-0.029916
-0.00813917
-0.00464697
-0.00509026
-0.00488836
-0.0050112
-0.00514344
-0.00539961
-0.00578713
-0.00631371
-0.00698664
-0.00782234
-0.00886608
-0.010207
-0.0120888
-0.0147875
-0.0195483
-0.0267592
-0.0400493
-0.0494099
-0.0464474
-0.0119162
-0.00790978
-0.00538828
-0.00490405
-0.00453369
-0.00467933
-0.00509269
-0.00570523
-0.00645653
-0.00734346
-0.00836327
-0.00958542
-0.0110506
-0.0131519
-0.0159422
-0.0212064
-0.0288847
-0.0416427
-0.048904
-0.0408776
0.0128065
-0.00471912
-0.00761123
-0.00674908
-0.00699024
-0.00685591
-0.00694863
-0.00724298
-0.00775867
-0.00847545
-0.0093703
-0.0104915
-0.0117896
-0.013791
-0.0163216
-0.0214143
-0.0280464
-0.0371674
-0.0350773
-0.00940425
0.076713
-0.0294364
-0.00450175
-0.00335319
-0.00285348
-0.00295172
-0.00353012
-0.0044532
-0.00546083
-0.00664995
-0.00784479
-0.00934971
-0.0109427
-0.0131744
-0.0159024
-0.0193093
-0.0213514
-0.0186765
0.00780466
0.0752794
0.214593
)
;

boundaryField
{
    movingWall
    {
        type            zeroGradient;
    }
    fixedWalls
    {
        type            zeroGradient;
    }
    frontAndBack
    {
        type            empty;
    }
}


// ************************************************************************* //
