/*--------------------------------*- C++ -*----------------------------------*\
  =========                 |
  \\      /  F ield         | OpenFOAM: The Open Source CFD Toolbox
   \\    /   O peration     | Website:  https://openfoam.org
    \\  /    A nd           | Version:  10
     \\/     M anipulation  |
\*---------------------------------------------------------------------------*/
FoamFile
{
    format      ascii;
    class       volVectorField;
    location    "3.725";
    object      U;
}
// * * * * * * * * * * * * * * * * * * * * * * * * * * * * * * * * * * * * * //

dimensions      [0 1 -1 0 0 0 0];

internalField   nonuniform List<vector> 
400
(
(-0.000131955 0.000128808 0)
(-0.000879593 0.000342605 0)
(-0.00203881 0.000387223 0)
(-0.00311581 0.000381724 0)
(-0.0041537 0.000363069 0)
(-0.00511806 0.00033719 0)
(-0.00598481 0.000303715 0)
(-0.00673195 0.000261434 0)
(-0.00733569 0.000209242 0)
(-0.0077711 0.00014632 0)
(-0.00801294 7.23308e-05 0)
(-0.00803654 -1.22116e-05 0)
(-0.00781975 -0.000106802 0)
(-0.00734599 -0.000208475 0)
(-0.00660736 -0.000312889 0)
(-0.00560745 -0.000413965 0)
(-0.00436986 -0.00050255 0)
(-0.00296076 -0.000560976 0)
(-0.00135758 -0.000534504 0)
(-0.000244631 -0.000255937 0)
(-0.000359244 0.000883701 0)
(-0.00175967 0.00170683 0)
(-0.0037373 0.00186221 0)
(-0.00558237 0.00181504 0)
(-0.00734171 0.00170293 0)
(-0.00895768 0.00155121 0)
(-0.0103878 0.00136192 0)
(-0.0115955 0.00113366 0)
(-0.012544 0.000865074 0)
(-0.0131967 0.000555569 0)
(-0.0135187 0.000205749 0)
(-0.0134781 -0.000182312 0)
(-0.0130473 -0.000600494 0)
(-0.0122067 -0.00103712 0)
(-0.0109508 -0.00147511 0)
(-0.00929091 -0.00189065 0)
(-0.00726847 -0.00224862 0)
(-0.00498066 -0.00248052 0)
(-0.00241068 -0.00238637 0)
(-0.000516552 -0.00134041 0)
(-0.000427515 0.00210517 0)
(-0.00204084 0.00372351 0)
(-0.00428955 0.00400946 0)
(-0.00638176 0.00388989 0)
(-0.00837224 0.00363151 0)
(-0.0101975 0.00328585 0)
(-0.0118112 0.00285977 0)
(-0.0131735 0.00235338 0)
(-0.0142447 0.00176638 0)
(-0.0149859 0.00109963 0)
(-0.0153601 0.00035609 0)
(-0.0153293 -0.000457972 0)
(-0.0148599 -0.00132811 0)
(-0.0139294 -0.00223095 0)
(-0.0125269 -0.00313215 0)
(-0.0106594 -0.00398411 0)
(-0.00836734 -0.00471737 0)
(-0.00575736 -0.00519539 0)
(-0.0028075 -0.00502993 0)
(-0.000611034 -0.00299032 0)
(-0.000453187 0.00333595 0)
(-0.00217327 0.0057792 0)
(-0.00457173 0.00619614 0)
(-0.00680024 0.00600172 0)
(-0.00892351 0.00559741 0)
(-0.010876 0.00506035 0)
(-0.0126111 0.0044015 0)
(-0.0140886 0.00362175 0)
(-0.0152678 0.00272099 0)
(-0.0161075 0.00170017 0)
(-0.016567 0.00056333 0)
(-0.016604 -0.000679484 0)
(-0.0161756 -0.0020119 0)
(-0.0152454 -0.00340132 0)
(-0.0137896 -0.00479777 0)
(-0.0118025 -0.00612901 0)
(-0.00931537 -0.00728626 0)
(-0.00644117 -0.00805512 0)
(-0.00315201 -0.00783656 0)
(-0.000686592 -0.00473266 0)
(-0.000477779 0.00464554 0)
(-0.00230791 0.00797089 0)
(-0.00486629 0.0085272 0)
(-0.00724336 0.0082558 0)
(-0.00951446 0.00770183 0)
(-0.0116127 0.00696952 0)
(-0.0134919 0.00607398 0)
(-0.0151126 0.00501651 0)
(-0.0164336 0.00379618 0)
(-0.0174117 0.00241247 0)
(-0.0180014 0.00086773 0)
(-0.0181529 -0.000829052 0)
(-0.017811 -0.00265999 0)
(-0.0169209 -0.00458699 0)
(-0.0154364 -0.0065473 0)
(-0.0133269 -0.00844299 0)
(-0.010604 -0.0101176 0)
(-0.0073849 -0.0112582 0)
(-0.00363586 -0.0110139 0)
(-0.000795569 -0.00671657 0)
(-0.000509809 0.00604333 0)
(-0.00247875 0.0103212 0)
(-0.00523791 0.0110287 0)
(-0.00780192 0.010679 0)
(-0.0102588 0.00997281 0)
(-0.0125404 0.00904345 0)
(-0.0146021 0.00791048 0)
(-0.0164061 0.00657504 0)
(-0.0179119 0.00503416 0)
(-0.0190753 0.00328356 0)
(-0.0198459 0.00132047 0)
(-0.0201664 -0.000852046 0)
(-0.0199647 -0.00322204 0)
(-0.0191608 -0.0057513 0)
(-0.0176757 -0.00836862 0)
(-0.0154388 -0.0109508 0)
(-0.0124234 -0.0132843 0)
(-0.00874112 -0.0149272 0)
(-0.00434793 -0.0147098 0)
(-0.000962414 -0.00904828 0)
(-0.000550698 0.00755142 0)
(-0.00269302 0.0128672 0)
(-0.00570066 0.0137397 0)
(-0.00849428 0.0133094 0)
(-0.0111779 0.0124475 0)
(-0.0136822 0.0113194 0)
(-0.0159658 0.00994964 0)
(-0.0179943 0.00833891 0)
(-0.0197303 0.00648082 0)
(-0.0211304 0.00436457 0)
(-0.0221415 0.00197792 0)
(-0.0226994 -0.00068777 0)
(-0.0227138 -0.00363719 0)
(-0.0220717 -0.00684188 0)
(-0.0206483 -0.0102337 0)
(-0.0183106 -0.0136702 0)
(-0.0149614 -0.0168725 0)
(-0.0106801 -0.0192273 0)
(-0.00540093 -0.0191374 0)
(-0.00122246 -0.0118951 0)
(-0.000600994 0.00919652 0)
(-0.00295426 0.0156536 0)
(-0.00626126 0.0167058 0)
(-0.0093276 0.0161896 0)
(-0.0122777 0.0151658 0)
(-0.0150418 0.0138361 0)
(-0.0175837 0.0122311 0)
(-0.0198758 0.0103513 0)
(-0.0218871 0.00818574 0)
(-0.0235788 0.00571438 0)
(-0.0248987 0.00290962 0)
(-0.0257817 -0.000259928 0)
(-0.0261193 -0.00381485 0)
(-0.0257592 -0.00776808 0)
(-0.0245182 -0.0120725 0)
(-0.0221692 -0.0165842 0)
(-0.0184929 -0.0209593 0)
(-0.0134734 -0.024364 0)
(-0.00699862 -0.024593 0)
(-0.00164882 -0.0155214 0)
(-0.000661946 0.0110074 0)
(-0.00326787 0.0187282 0)
(-0.00692877 0.0199731 0)
(-0.0103107 0.0193606 0)
(-0.0135643 0.0181647 0)
(-0.0166203 0.0166283 0)
(-0.0194513 0.0147903 0)
(-0.0220402 0.012652 0)
(-0.0243677 0.0101982 0)
(-0.0264069 0.00739752 0)
(-0.028116 0.00420221 0)
(-0.0294237 0.000550425 0)
(-0.0302222 -0.00361712 0)
(-0.0303319 -0.00837599 0)
(-0.0294845 -0.0137377 0)
(-0.0273255 -0.0195989 0)
(-0.0234394 -0.0255759 0)
(-0.017582 -0.0305715 0)
(-0.00954504 -0.0314915 0)
(-0.00240621 -0.0203785 0)
(-0.000736384 0.0130174 0)
(-0.00364371 0.0221437 0)
(-0.00771839 0.0235899 0)
(-0.0114579 0.0228619 0)
(-0.0150474 0.0214761 0)
(-0.01842 0.0197235 0)
(-0.0215609 0.0176545 0)
(-0.0244686 0.0152734 0)
(-0.0271423 0.012562 0)
(-0.0295755 0.00947808 0)
(-0.0317463 0.00595163 0)
(-0.0336013 0.00188426 0)
(-0.0350464 -0.00285203 0)
(-0.0358839 -0.00842414 0)
(-0.0357709 -0.0149568 0)
(-0.0341932 -0.022472 0)
(-0.0304448 -0.0306295 0)
(-0.023817 -0.0380592 0)
(-0.0139012 -0.0404138 0)
(-0.0038874 -0.0273136 0)
(-0.000830202 0.015268 0)
(-0.00409972 0.0259615 0)
(-0.00865594 0.0276064 0)
(-0.0127936 0.0267293 0)
(-0.0167442 0.0251245 0)
(-0.0204462 0.0231391 0)
(-0.0239027 0.0208383 0)
(-0.0271338 0.0182334 0)
(-0.0301642 0.0153068 0)
(-0.0330184 0.0120086 0)
(-0.035711 0.00824797 0)
(-0.0382288 0.00388133 0)
(-0.0405329 -0.00130265 0)
(-0.0424449 -0.00756412 0)
(-0.0435817 -0.0152643 0)
(-0.043286 -0.0246858 0)
(-0.0404758 -0.0357249 0)
(-0.0336523 -0.0468292 0)
(-0.0219794 -0.0520603 0)
(-0.00706633 -0.0381018 0)
(-0.000955462 0.0178174 0)
(-0.00466817 0.0302558 0)
(-0.00978471 0.0320755 0)
(-0.0143571 0.0309935 0)
(-0.018683 0.0291235 0)
(-0.022711 0.0268765 0)
(-0.0264681 0.024337 0)
(-0.0300016 0.0215272 0)
(-0.0333687 0.0184367 0)
(-0.0366362 0.0150169 0)
(-0.039876 0.011168 0)
(-0.0431554 0.00671466 0)
(-0.0464979 0.00137165 0)
(-0.0498649 -0.00527107 0)
(-0.0529874 -0.0138876 0)
(-0.0551478 -0.0252248 0)
(-0.0549131 -0.0397732 0)
(-0.0496831 -0.0561422 0)
(-0.0378448 -0.0670111 0)
(-0.0143652 -0.0565713 0)
(-0.00113802 0.0207535 0)
(-0.0054087 0.0351242 0)
(-0.011176 0.0370488 0)
(-0.0162111 0.0356713 0)
(-0.0209095 0.0334685 0)
(-0.0252378 0.030917 0)
(-0.0292539 0.0281208 0)
(-0.0330359 0.0251183 0)
(-0.0366763 0.0219147 0)
(-0.0402893 0.018477 0)
(-0.0440159 0.0147179 0)
(-0.0480295 0.0104607 0)
(-0.0525291 0.00538013 0)
(-0.0577455 -0.00110701 0)
(-0.0637331 -0.00989739 0)
(-0.070101 -0.0224142 0)
(-0.075368 -0.0403694 0)
(-0.0757622 -0.0635661 0)
(-0.0677853 -0.0851909 0)
(-0.0294776 -0.0902491 0)
(-0.00143065 0.0241872 0)
(-0.00644396 0.0407205 0)
(-0.0129563 0.042652 0)
(-0.0184492 0.0408561 0)
(-0.0234875 0.0381922 0)
(-0.0280639 0.0352379 0)
(-0.0322687 0.0321322 0)
(-0.0362091 0.028929 0)
(-0.040011 0.0256503 0)
(-0.0438336 0.022295 0)
(-0.0478932 0.018834 0)
(-0.0524965 0.015172 0)
(-0.0580798 0.0110597 0)
(-0.0652169 0.00591809 0)
(-0.0746719 -0.00136874 0)
(-0.0872585 -0.0129599 0)
(-0.102069 -0.0324004 0)
(-0.113375 -0.0641657 0)
(-0.112207 -0.106641 0)
(-0.0477145 -0.152917 0)
(-0.00185157 0.0286246 0)
(-0.00774541 0.0466747 0)
(-0.015219 0.0481993 0)
(-0.021212 0.0456814 0)
(-0.0265743 0.0425903 0)
(-0.0313005 0.0393694 0)
(-0.0355612 0.0360831 0)
(-0.039512 0.0327624 0)
(-0.0432967 0.0294556 0)
(-0.0470789 0.0262238 0)
(-0.0510925 0.0231423 0)
(-0.0557303 0.0202713 0)
(-0.0616793 0.017611 0)
(-0.0700765 0.0149015 0)
(-0.082738 0.01122 0)
(-0.102099 0.00386495 0)
(-0.128409 -0.0135822 0)
(-0.149297 -0.0578037 0)
(-0.14946 -0.142367 0)
(-0.0463409 -0.256497 0)
(-0.00373922 0.0326693 0)
(-0.0115463 0.0559929 0)
(-0.0187634 0.0570531 0)
(-0.0246898 0.0539951 0)
(-0.0298729 0.0497474 0)
(-0.0345844 0.0453955 0)
(-0.0388561 0.0411869 0)
(-0.042769 0.0372201 0)
(-0.0464132 0.0335687 0)
(-0.0499211 0.0303212 0)
(-0.053509 0.0276652 0)
(-0.0575495 0.0259028 0)
(-0.0627596 0.0255383 0)
(-0.0704613 0.0270565 0)
(-0.0830818 0.0303689 0)
(-0.103319 0.0313313 0)
(-0.132059 0.0178819 0)
(-0.149677 -0.052363 0)
(-0.148445 -0.200519 0)
(-0.0231994 -0.370529 0)
(-0.00156884 0.046749 0)
(-0.00992124 0.0590831 0)
(-0.022166 0.0581768 0)
(-0.028793 0.0533367 0)
(-0.034991 0.0494265 0)
(-0.0395982 0.0457533 0)
(-0.0432602 0.0422197 0)
(-0.0462613 0.0387574 0)
(-0.0487819 0.0354588 0)
(-0.0509138 0.0324344 0)
(-0.0527297 0.0300525 0)
(-0.0543158 0.0287751 0)
(-0.0560105 0.0297135 0)
(-0.0583697 0.0337956 0)
(-0.0634389 0.0421311 0)
(-0.0707542 0.046837 0)
(-0.0919947 0.0337953 0)
(-0.0965393 -0.0581611 0)
(-0.103351 -0.255551 0)
(-0.00272032 -0.453622 0)
(-0.0112447 0.0372231 0)
(-0.0259898 0.082678 0)
(-0.0273549 0.07922 0)
(-0.0352872 0.0732954 0)
(-0.038879 0.0654939 0)
(-0.0409876 0.0581753 0)
(-0.0416254 0.0516181 0)
(-0.0413538 0.0457843 0)
(-0.0404744 0.0407034 0)
(-0.0390192 0.0362987 0)
(-0.0372419 0.032838 0)
(-0.0347106 0.0308628 0)
(-0.0318005 0.0315623 0)
(-0.026563 0.0361266 0)
(-0.0221947 0.0474821 0)
(-0.00604264 0.0552884 0)
(-0.00384202 0.0493283 0)
(0.0277484 -0.0443584 0)
(-0.00694628 -0.27488 0)
(0.034132 -0.487721 0)
(-0.0751524 0.10033 0)
(-0.0599071 0.0635584 0)
(-0.0609084 0.0617404 0)
(-0.0408484 0.0546603 0)
(-0.0241581 0.0473058 0)
(-0.00597399 0.0414539 0)
(0.0108976 0.036823 0)
(0.0268462 0.0326564 0)
(0.0409687 0.0292251 0)
(0.054568 0.0257576 0)
(0.0661043 0.0233272 0)
(0.0783353 0.0209363 0)
(0.0880914 0.0205388 0)
(0.105057 0.0205261 0)
(0.111863 0.022099 0)
(0.155907 0.0202324 0)
(0.154336 -0.00343545 0)
(0.214356 -0.0607494 0)
(0.153374 -0.256044 0)
(0.123536 -0.4429 0)
(0.120592 0.14033 0)
(0.154684 0.0868767 0)
(0.234226 0.064743 0)
(0.289932 0.0496203 0)
(0.33359 0.0390416 0)
(0.371683 0.0312576 0)
(0.402331 0.0257618 0)
(0.432315 0.0214548 0)
(0.452861 0.0180534 0)
(0.479075 0.0156646 0)
(0.490361 0.0127348 0)
(0.516591 0.0119184 0)
(0.518139 0.00918371 0)
(0.549404 0.00925829 0)
(0.53884 0.00757013 0)
(0.577542 0.0036133 0)
(0.546282 -0.00271666 0)
(0.566082 -0.0307143 0)
(0.434457 -0.0806746 0)
(0.277884 -0.154493 0)
)
;

boundaryField
{
    movingWall
    {
        type            fixedValue;
        value           uniform (1 0 0);
    }
    fixedWalls
    {
        type            noSlip;
    }
    frontAndBack
    {
        type            empty;
    }
}


// ************************************************************************* //
