/*--------------------------------*- C++ -*----------------------------------*\
  =========                 |
  \\      /  F ield         | OpenFOAM: The Open Source CFD Toolbox
   \\    /   O peration     | Website:  https://openfoam.org
    \\  /    A nd           | Version:  10
     \\/     M anipulation  |
\*---------------------------------------------------------------------------*/
FoamFile
{
    format      ascii;
    class       volScalarField;
    location    "4.75";
    object      p;
}
// * * * * * * * * * * * * * * * * * * * * * * * * * * * * * * * * * * * * * //

dimensions      [0 2 -2 0 0 0 0];

internalField   nonuniform List<scalar> 
475
(
-0.0520843
-0.077343
-0.106828
-0.130394
-0.152602
-0.0777387
-0.0911542
-0.107664
-0.126678
-0.143599
-0.075974
-0.08539
-0.100442
-0.117756
-0.134407
-0.0752722
-0.0862533
-0.101017
-0.116484
-0.130322
-0.0455583
-0.0724768
-0.0960963
-0.113813
-0.126579
-0.171602
-0.183185
-0.188553
-0.196027
-0.207094
-0.221788
-0.234369
-0.239218
-0.235453
-0.223479
-0.204181
-0.18039
-0.156425
-0.134161
-0.112838
-0.0953638
-0.0836809
-0.0742034
-0.0656023
-0.0567732
-0.0435684
-0.0257446
-0.0104535
-0.000767789
0.00490841
0.00956047
0.0145853
0.0193568
0.0227939
0.0244495
0.0245669
0.0236591
0.0221911
0.0204704
0.0186608
0.0168343
0.0150169
0.0132153
0.0114259
0.00964727
0.00787714
0.00611765
0.00436502
0.00261688
0.000871617
-0.1608
-0.173134
-0.180643
-0.185632
-0.19011
-0.194643
-0.198055
-0.198022
-0.192817
-0.183728
-0.171755
-0.158466
-0.14647
-0.135887
-0.124341
-0.114127
-0.10661
-0.0979174
-0.0869649
-0.0737642
-0.0557119
-0.0359625
-0.0184257
-0.00603788
0.00242826
0.00913824
0.0151362
0.0202213
0.0238016
0.0256142
0.0258688
0.0250105
0.0234803
0.0216079
0.0195998
0.0175655
0.0155573
0.0135965
0.0116848
0.00981756
0.00798501
0.00618098
0.00439837
0.00263111
0.00087393
-0.14803
-0.158123
-0.164568
-0.167781
-0.169055
-0.168155
-0.166098
-0.162103
-0.15634
-0.150682
-0.146037
-0.145139
-0.14354
-0.13848
-0.13448
-0.132248
-0.127187
-0.116477
-0.101479
-0.0832512
-0.060614
-0.0375398
-0.0186852
-0.00557532
0.0035269
0.0104975
0.0163133
0.0210581
0.0244212
0.0262348
0.0266157
0.0258777
0.024388
0.0224657
0.020342
0.0181602
0.0160073
0.0139175
0.0119026
0.00995655
0.0080699
0.00622907
0.00442221
0.00264027
0.000874575
-0.141011
-0.149015
-0.153608
-0.155323
-0.154007
-0.149414
-0.143152
-0.134316
-0.126574
-0.120582
-0.122243
-0.137154
-0.145007
-0.137158
-0.128019
-0.127753
-0.129232
-0.123413
-0.109124
-0.0874727
-0.0615881
-0.0371235
-0.0177746
-0.00443071
0.0047289
0.0115557
0.0170947
0.0215819
0.0248214
0.0266458
0.0271048
0.0264387
0.0249678
0.0230063
0.0208092
0.0185202
0.0162708
0.0141013
0.0120233
0.0100314
0.00811257
0.00625056
0.00443067
0.00264129
0.000872415
-0.136202
-0.142971
-0.146865
-0.147805
-0.144834
-0.13896
-0.130025
-0.11948
-0.109845
-0.103071
-0.108522
-0.12631
-0.1412
-0.145591
-0.141393
-0.134543
-0.126702
-0.11528
-0.0993516
-0.0788323
-0.0555475
-0.0336334
-0.0161035
-0.00343529
0.00561959
0.0124384
0.0178606
0.0221424
0.0251926
0.0268977
0.0272985
0.0265988
0.0251031
0.0231141
0.0208726
0.0185898
0.0163316
0.0141488
0.0120579
0.0100548
0.0081271
0.0062585
0.00443444
0.00264221
0.00087208
-0.201221
-0.203155
-0.205843
-0.211141
-0.223356
-0.242001
-0.260312
-0.270656
-0.267914
-0.251007
-0.220551
-0.178923
-0.130821
-0.0821085
-0.037412
0.000103482
0.0284974
0.0478668
0.0592261
0.0635977
0.0630172
0.059697
0.0546964
0.0483933
0.0401204
0.0310949
0.0232711
0.0179005
0.0150301
0.014009
0.0140315
0.0144298
0.0147472
0.0147918
0.0144939
0.0138659
0.0129555
0.0118183
0.0105061
0.009063
0.00752434
0.0059179
0.00426363
0.00257663
0.000867496
-0.192778
-0.196375
-0.20167
-0.212172
-0.229511
-0.251945
-0.27178
-0.283088
-0.281538
-0.266204
-0.236791
-0.195147
-0.145917
-0.096003
-0.0504506
-0.0121624
0.017048
0.0370767
0.0496148
0.0559153
0.057095
0.0550888
0.0512273
0.0451553
0.0374922
0.029632
0.0230529
0.0185012
0.0159252
0.0148743
0.0147475
0.0149817
0.0151864
0.015126
0.0147304
0.0140284
0.0130645
0.011889
0.01055
0.00908908
0.00753892
0.00592508
0.00426661
0.00257698
0.000866937
-0.202058
-0.20047
-0.203562
-0.214692
-0.235338
-0.260466
-0.281703
-0.294231
-0.293055
-0.276887
-0.247484
-0.206849
-0.158759
-0.110668
-0.0673342
-0.0302746
-0.00163804
0.017809
0.030485
0.0377891
0.0405912
0.0406157
0.038958
0.0358278
0.0311053
0.0263618
0.022422
0.0195745
0.0178026
0.0169327
0.0166215
0.0165042
0.0163198
0.0159282
0.0152941
0.0144139
0.0133223
0.0120568
0.0106544
0.00915047
0.00757245
0.00594091
0.00427179
0.00257641
0.000864382
-0.189711
-0.191925
-0.195657
-0.20734
-0.226891
-0.250365
-0.269902
-0.281912
-0.283181
-0.270384
-0.244353
-0.208452
-0.165614
-0.122589
-0.0845947
-0.0520472
-0.0266354
-0.00936973
0.00273028
0.0109772
0.01563
0.0185089
0.020792
0.0214182
0.0207618
0.019814
0.0195156
0.0197405
0.0199942
0.0199708
0.0196529
0.0191026
0.0183601
0.0174451
0.016373
0.0151578
0.0138177
0.0123777
0.0108599
0.00927872
0.00764897
0.00598298
0.0042919
0.0025836
0.000864414
-0.22205
-0.200021
-0.197964
-0.204948
-0.220589
-0.24182
-0.259566
-0.26847
-0.267435
-0.255161
-0.231851
-0.201128
-0.16609
-0.131244
-0.100763
-0.0758023
-0.0567593
-0.0430087
-0.0324831
-0.022534
-0.0126007
-0.00378611
0.00324798
0.0075157
0.00999534
0.0124385
0.01572
0.019073
0.0214414
0.022458
0.0223663
0.0215661
0.0203777
0.0189941
0.0175109
0.015968
0.0143821
0.0127622
0.0111144
0.00944247
0.00775075
0.00604211
0.00432283
0.00259668
0.000866348
)
;

boundaryField
{
    inlet
    {
        type            zeroGradient;
    }
    outlet
    {
        type            fixedValue;
        value           uniform 0;
    }
    upperWall
    {
        type            zeroGradient;
    }
    lowerWall
    {
        type            zeroGradient;
    }
    frontAndBack
    {
        type            empty;
    }
}


// ************************************************************************* //
