/*--------------------------------*- C++ -*----------------------------------*\
  =========                 |
  \\      /  F ield         | OpenFOAM: The Open Source CFD Toolbox
   \\    /   O peration     | Website:  https://openfoam.org
    \\  /    A nd           | Version:  10
     \\/     M anipulation  |
\*---------------------------------------------------------------------------*/
FoamFile
{
    format      ascii;
    class       volScalarField;
    location    "4.8";
    object      p;
}
// * * * * * * * * * * * * * * * * * * * * * * * * * * * * * * * * * * * * * //

dimensions      [0 2 -2 0 0 0 0];

internalField   nonuniform List<scalar> 
400
(
4.33782e-09
-2.53464e-05
3.95348e-06
6.45299e-05
0.000162599
0.000298979
0.000474652
0.000690501
0.000946601
0.00124161
0.00157211
0.00193192
0.00231168
0.00269757
0.00307198
0.00341391
0.00369986
0.00390664
0.0040291
0.00401562
2.60234e-05
-1.83655e-07
3.1669e-05
9.1042e-05
0.000185692
0.000317113
0.000486743
0.000695853
0.000944896
0.00123296
0.0015571
0.00191126
0.00228724
0.00267138
0.00304624
0.00339063
0.00368038
0.00389194
0.00402139
0.00400643
-7.48582e-06
-3.94012e-05
-9.17286e-06
4.72376e-05
0.000138393
0.000266046
0.000432099
0.00063848
0.000886438
0.00117594
0.00150498
0.00186911
0.00225998
0.00266431
0.00306394
0.00343583
0.00375248
0.00398552
0.00412943
0.00410836
-7.95861e-05
-0.000115935
-8.81121e-05
-3.57892e-05
5.05308e-05
0.000173015
0.000334304
0.000537339
0.000784611
0.00107757
0.00141579
0.00179583
0.0022117
0.00265027
0.00309259
0.00351245
0.00387654
0.00414839
0.00431889
0.004295
-0.000195966
-0.000236852
-0.000212397
-0.000165388
-8.52905e-05
3.05979e-05
0.000185869
0.000384793
0.00063157
0.000929739
0.00128136
0.00168604
0.00213684
0.00262495
0.00313014
0.00362248
0.00406082
0.00439515
0.0046091
0.00458521
-0.000356376
-0.000402568
-0.000382575
-0.000342513
-0.000270731
-0.000163924
-1.73875e-05
0.000174751
0.000418827
0.000721102
0.00108684
0.0015188
0.00201559
0.0025695
0.00316108
0.00375668
0.00430507
0.00473631
0.00501928
0.00500096
-0.000560227
-0.000612822
-0.000598593
-0.000567671
-0.000507235
-0.000413391
-0.000280248
-0.000100138
0.000135798
0.000437251
0.000813918
0.00127386
0.00182163
0.00245534
0.00315848
0.00389529
0.00460274
0.00518368
0.00557693
0.0055791
-0.000807069
-0.000867396
-0.000860448
-0.000841412
-0.000796308
-0.000720809
-0.000607918
-0.000448146
-0.000229884
6.05844e-05
0.000438672
0.000920063
0.00151732
0.00223874
0.00307717
0.0039998
0.00493276
0.00574554
0.00631878
0.00638189
-0.00109634
-0.00116585
-0.00116775
-0.0011637
-0.00113871
-0.00108836
-0.00100486
-0.000877185
-0.000691101
-0.000428705
-6.81187e-05
0.000415941
0.00105039
0.00185256
0.00284136
0.00399588
0.0052404
0.00641053
0.00728904
0.00751824
-0.00142732
-0.00150748
-0.00151947
-0.00153347
-0.00153375
-0.00151637
-0.00147343
-0.00139303
-0.00125904
-0.00105001
-0.000737924
-0.000287127
0.0003447
0.00120195
0.00232946
0.00374353
0.00539666
0.00711283
0.00853245
0.00918486
-0.00179947
-0.00189155
-0.00191389
-0.0019482
-0.00197847
-0.00200212
-0.00201207
-0.0019968
-0.00193988
-0.00181823
-0.00159983
-0.00124057
-0.000681079
0.000154618
0.00133981
0.00297438
0.00510181
0.0076212
0.0100143
0.0116754
-0.00221311
-0.0023178
-0.00234863
-0.00240358
-0.00246695
-0.00253852
-0.00261331
-0.00268179
-0.00272967
-0.0027359
-0.00266959
-0.00248506
-0.00211392
-0.00145733
-0.000391195
0.00123031
0.00368623
0.00717651
0.0111861
0.0148059
-0.00267116
-0.00278796
-0.00282154
-0.00289385
-0.00298982
-0.00311302
-0.00326205
-0.00343101
-0.00361066
-0.003787
-0.00393863
-0.00403242
-0.00401637
-0.00380868
-0.0032928
-0.00229156
-0.000352449
0.00355257
0.00938892
0.0162088
-0.00317905
-0.00329954
-0.00332021
-0.00340043
-0.00352603
-0.003703
-0.00393218
-0.00421297
-0.00454425
-0.00492428
-0.00535062
-0.00582058
-0.00633459
-0.00690788
-0.00762712
-0.00861642
-0.00950333
-0.00760717
-0.00128905
0.00981416
-0.00376994
-0.00390651
-0.00390201
-0.00398333
-0.00411873
-0.00432684
-0.00461781
-0.00500001
-0.00548314
-0.00608192
-0.00682233
-0.00774921
-0.00895634
-0.010629
-0.0132497
-0.0175483
-0.0240991
-0.0263439
-0.0206301
-0.00414427
-0.00452206
-0.00445676
-0.00435264
-0.00435916
-0.00449551
-0.00475968
-0.00514637
-0.00565573
-0.00630041
-0.00710639
-0.00812716
-0.0094636
-0.0113296
-0.0140543
-0.0186219
-0.0259821
-0.0383906
-0.0452764
-0.0413707
-0.0176609
-0.005001
-0.00543627
-0.00520147
-0.00527723
-0.00535444
-0.00556055
-0.00590913
-0.00642004
-0.00711404
-0.0080196
-0.00920246
-0.010768
-0.013032
-0.0162731
-0.0220659
-0.030171
-0.0455553
-0.0538956
-0.0501988
-0.0140698
-0.00831467
-0.0057953
-0.00525837
-0.00480823
-0.00486759
-0.00519566
-0.00573169
-0.00642701
-0.0072924
-0.00833406
-0.00964099
-0.0112578
-0.0136219
-0.0167222
-0.0223207
-0.0301077
-0.0421223
-0.0467394
-0.0362784
0.0168091
-0.00510865
-0.00803659
-0.00710053
-0.00724606
-0.00698184
-0.00694664
-0.00711345
-0.00751582
-0.00817458
-0.00903991
-0.0102103
-0.0116324
-0.013792
-0.0166626
-0.0217629
-0.0280906
-0.036264
-0.0307173
-0.00339393
0.0815177
-0.0300205
-0.00504765
-0.00377403
-0.0031603
-0.0031188
-0.00354451
-0.00432238
-0.00520108
-0.0063019
-0.00747158
-0.00897486
-0.0107226
-0.0130837
-0.0159516
-0.0194838
-0.0210793
-0.017692
0.0109559
0.0807621
0.219722
)
;

boundaryField
{
    movingWall
    {
        type            zeroGradient;
    }
    fixedWalls
    {
        type            zeroGradient;
    }
    frontAndBack
    {
        type            empty;
    }
}


// ************************************************************************* //
