/*--------------------------------*- C++ -*----------------------------------*\
  =========                 |
  \\      /  F ield         | OpenFOAM: The Open Source CFD Toolbox
   \\    /   O peration     | Website:  https://openfoam.org
    \\  /    A nd           | Version:  10
     \\/     M anipulation  |
\*---------------------------------------------------------------------------*/
FoamFile
{
    format      ascii;
    class       surfaceScalarField;
    location    "9.5";
    object      phi;
}
// * * * * * * * * * * * * * * * * * * * * * * * * * * * * * * * * * * * * * //

dimensions      [0 3 -1 0 0 0 0];

internalField   nonuniform List<scalar> 
22800
(
-3.1716e-06
4.22996e-06
-1.0624e-06
-1.00544e-05
7.61047e-06
-7.27719e-07
-1.82812e-05
8.74696e-06
-5.20127e-07
-2.71406e-05
9.27009e-06
-4.10655e-07
-3.63834e-05
9.67941e-06
-4.36648e-07
-4.59337e-05
1.01185e-05
-5.682e-07
-5.57087e-05
1.05769e-05
-8.0195e-07
-6.55253e-05
1.09796e-05
-1.16292e-06
-7.50466e-05
1.12139e-05
-1.69271e-06
-8.37384e-05
1.11346e-05
-2.44276e-06
-9.08411e-05
1.05694e-05
-3.4667e-06
-9.53696e-05
9.33631e-06
-4.80776e-06
-9.61811e-05
7.28655e-06
-6.47505e-06
-9.21484e-05
4.37861e-06
-8.41131e-06
-8.24755e-05
7.71773e-07
-1.04447e-05
-6.71251e-05
-3.10508e-06
-1.22454e-05
-4.74029e-05
-6.36048e-06
-1.33617e-05
-2.62448e-05
-7.85037e-06
-1.33077e-05
-7.90949e-06
-6.62712e-06
-1.17082e-05
-1.26228e-06
-6.64721e-06
-6.33528e-06
1.32461e-05
-2.68085e-06
-1.80928e-05
2.21467e-05
-2.7787e-06
-3.18731e-05
2.52533e-05
-2.72607e-06
-4.66203e-05
2.66617e-05
-2.64442e-06
-6.19031e-05
2.76444e-05
-2.68222e-06
-7.75224e-05
2.8572e-05
-2.83416e-06
-9.32749e-05
2.94396e-05
-3.11019e-06
-0.000108824
3.00784e-05
-3.54999e-06
-0.000123619
3.0222e-05
-4.2125e-06
-0.000136836
2.95229e-05
-5.17122e-06
-0.000147334
2.75719e-05
-6.50528e-06
-0.000153652
2.39359e-05
-8.28146e-06
-0.000154114
1.82681e-05
-1.05192e-05
-0.000147128
1.05434e-05
-1.31506e-05
-0.000131596
1.21225e-06
-1.59732e-05
-0.000107361
-8.88664e-06
-1.84527e-05
-7.6322e-05
-1.74701e-05
-1.99297e-05
-4.28557e-05
-2.16559e-05
-1.96608e-05
-1.35632e-05
-1.89846e-05
-1.6935e-05
-6.04886e-06
-8.77662e-06
-7.42479e-06
2.42679e-05
-3.597e-06
-2.09935e-05
3.96921e-05
-3.97662e-06
-3.67865e-05
4.50688e-05
-4.02256e-06
-5.36136e-05
4.74363e-05
-3.9475e-06
-7.10052e-05
4.90038e-05
-3.96779e-06
-8.87516e-05
5.04148e-05
-4.09637e-06
-0.000106647
5.16899e-05
-4.35529e-06
-0.000124351
5.2581e-05
-4.79818e-06
-0.000141304
5.26779e-05
-5.50297e-06
-0.000156641
5.14311e-05
-6.57109e-06
-0.000169129
4.81786e-05
-8.11888e-06
-0.000177147
4.22115e-05
-1.02578e-05
-0.000178747
3.29241e-05
-1.30561e-05
-0.000171817
2.00879e-05
-1.64743e-05
-0.000154638
4.26281e-06
-2.02297e-05
-0.000126745
-1.30925e-05
-2.36863e-05
-9.00301e-05
-2.83622e-05
-2.58232e-05
-4.99184e-05
-3.62998e-05
-2.54679e-05
-1.50473e-05
-3.22915e-05
-2.15642e-05
-1.04655e-05
-1.06307e-05
-7.63444e-06
3.61685e-05
-4.26619e-06
-2.17043e-05
5.86466e-05
-4.88463e-06
-3.80655e-05
6.6443e-05
-5.01307e-06
-5.55065e-05
6.98266e-05
-4.94925e-06
-7.35858e-05
7.20484e-05
-4.96531e-06
-9.21475e-05
7.40675e-05
-5.091e-06
-0.000111058
7.59619e-05
-5.36146e-06
-0.000130068
7.74377e-05
-5.84729e-06
-0.000148713
7.7975e-05
-6.65186e-06
-0.000166212
7.68465e-05
-7.91621e-06
-0.000181342
7.31256e-05
-9.81737e-06
-0.000192339
6.57553e-05
-1.25466e-05
-0.000196874
5.37198e-05
-1.62606e-05
-0.000192193
3.63966e-05
-2.0989e-05
-0.000175617
1.41587e-05
-2.64725e-05
-0.000145669
-1.1162e-05
-3.18781e-05
-0.000103694
-3.48201e-05
-3.55176e-05
-5.62933e-05
-4.83875e-05
-3.53127e-05
-1.53133e-05
-4.38454e-05
-2.9426e-05
-1.19421e-05
-1.38368e-05
-7.40294e-06
4.83095e-05
-4.73803e-06
-2.13332e-05
7.81387e-05
-5.56184e-06
-3.76051e-05
8.84747e-05
-5.75967e-06
-5.50299e-05
9.29665e-05
-5.71515e-06
-7.32206e-05
9.59903e-05
-5.75125e-06
-9.21106e-05
9.88744e-05
-5.91684e-06
-0.00011169
0.000101805
-6.26355e-06
-0.000131865
0.000104498
-6.88505e-06
-0.000152356
0.000106387
-7.92119e-06
-0.00017256
0.000106622
-9.57178e-06
-0.000191374
0.000104047
-1.21072e-05
-0.000206965
9.72042e-05
-1.58587e-05
-0.000216586
8.44945e-05
-2.11537e-05
-0.000216569
6.45546e-05
-2.81749e-05
-0.000202679
3.70241e-05
-3.67547e-05
-0.000171884
3.9512e-06
-4.59088e-05
-0.00012377
-3.0218e-05
-5.27161e-05
-6.60256e-05
-5.28438e-05
-5.32881e-05
-1.57037e-05
-5.03778e-05
-4.37894e-05
-8.23577e-06
-1.941e-05
-6.92362e-06
6.03258e-05
-5.09269e-06
-2.03482e-05
9.7668e-05
-6.1048e-06
-3.61579e-05
0.000110651
-6.36625e-06
-5.31979e-05
0.000116356
-6.34893e-06
-7.11413e-05
0.000120359
-6.42484e-06
-9.00278e-05
0.000124426
-6.6655e-06
-0.000110004
0.000128925
-7.14391e-06
-0.000131187
0.000133665
-7.9842e-06
-0.000153561
0.000138136
-9.37577e-06
-0.000176825
0.000141488
-1.16017e-05
-0.000200156
0.000142451
-1.50716e-05
-0.000221864
0.000139254
-2.03418e-05
-0.000238951
0.00012965
-2.80679e-05
-0.000246825
0.000111244
-3.88156e-05
-0.00023936
8.22203e-05
-5.26613e-05
-0.00020985
4.27968e-05
-6.83547e-05
-0.000156258
-1.95087e-06
-8.18595e-05
-8.39111e-05
-4.04158e-05
-8.47749e-05
-1.80795e-05
-4.69327e-05
-6.92767e-05
2.38404e-06
-2.86993e-05
-6.26786e-06
7.19931e-05
-5.39941e-06
-1.89221e-05
0.000116922
-6.59978e-06
-3.3973e-05
0.000132623
-6.92112e-06
-5.02914e-05
0.000139604
-6.92966e-06
-6.75994e-05
0.000144714
-7.04783e-06
-8.60393e-05
0.00015024
-7.37394e-06
-0.000105925
0.000156818
-8.00786e-06
-0.000127622
0.000164475
-9.11259e-06
-0.000151457
0.000172911
-1.09404e-05
-0.000177567
0.000181483
-1.38847e-05
-0.000205647
0.000189084
-1.85527e-05
-0.000234501
0.00019395
-2.58425e-05
-0.000261388
0.000193496
-3.6959e-05
-0.000281186
0.000184242
-5.32007e-05
-0.00028594
0.000162165
-7.51906e-05
-0.00026532
0.000123359
-0.000101183
-0.00020921
6.66645e-05
-0.000124725
-0.000120395
3.74013e-06
-0.000132971
-2.87073e-05
-2.85183e-05
-0.000110102
1.78253e-05
-4.41486e-05
-5.46543e-06
8.31579e-05
-5.69945e-06
-1.7125e-05
0.000135681
-7.09896e-06
-3.11261e-05
0.000154096
-7.47179e-06
-4.63377e-05
0.000162305
-7.48961e-06
-6.25032e-05
0.00016851
-7.62976e-06
-7.98419e-05
0.0001756
-8.02101e-06
-9.88129e-05
0.000184583
-8.7936e-06
-0.000120017
0.000195833
-1.01539e-05
-0.000144149
0.00020947
-1.24268e-05
-0.000171902
0.000225373
-1.61364e-05
-0.000203735
0.000243048
-2.21314e-05
-0.000239425
0.000261386
-3.17458e-05
-0.000277362
0.000278328
-4.68953e-05
-0.000313405
0.000290033
-6.97477e-05
-0.000339275
0.000289305
-0.000101269
-0.000340835
0.000262897
-0.000137978
-0.000298477
0.000192867
-0.00016856
-0.000195351
8.1396e-05
-0.000180782
-6.28869e-05
-3.72965e-06
-0.000157252
2.69516e-05
-7.20132e-05
-4.56135e-06
9.37418e-05
-6.02255e-06
-1.5051e-05
0.000153812
-7.64154e-06
-2.77184e-05
0.000174813
-8.05013e-06
-4.13879e-05
0.000184018
-8.04333e-06
-5.57754e-05
0.000191058
-8.16038e-06
-7.11304e-05
0.000199518
-8.56279e-06
-8.79933e-05
0.000210857
-9.41118e-06
-0.000107122
0.000225914
-1.09525e-05
-0.000129494
0.000245419
-1.35767e-05
-0.000156296
0.000270098
-1.79232e-05
-0.000188837
0.00030064
-2.50516e-05
-0.000228317
0.000337494
-3.66285e-05
-0.000275349
0.000380207
-5.48468e-05
-0.000328916
0.000424962
-8.13612e-05
-0.000384597
0.000459302
-0.000114317
-0.000429785
0.000453432
-0.000145347
-0.000430264
0.000358693
-0.000165347
-0.000335815
0.00016143
-0.000174483
-0.000148269
-2.12859e-05
-0.000169989
-5.82083e-06
-0.000115497
-3.65319e-06
0.000103793
-6.39788e-06
-1.29035e-05
0.000171335
-8.27293e-06
-2.40067e-05
0.000194611
-8.69516e-06
-3.56919e-05
0.000204317
-8.61397e-06
-4.75882e-05
0.000211593
-8.63879e-06
-5.99084e-05
0.000220804
-8.96573e-06
-7.31682e-05
0.000233897
-9.7808e-06
-8.81201e-05
0.000252223
-1.13566e-05
-0.000105803
0.000277215
-1.41138e-05
-0.000127611
0.00031063
-1.87236e-05
-0.000155419
0.000354681
-2.62336e-05
-0.00019176
0.000411808
-3.79717e-05
-0.000240661
0.000483561
-5.44539e-05
-0.000307791
0.000564577
-7.24847e-05
-0.000398658
0.00063178
-8.16111e-05
-0.000505873
0.000629831
-6.91838e-05
-0.00058456
0.000477778
-4.03983e-05
-0.000530955
0.000143557
-3.57322e-05
-0.000290994
-0.00016476
-9.64873e-05
-0.000152366
-0.000144448
-2.92046e-06
0.000113599
-6.88608e-06
-1.10612e-05
0.000188533
-9.05682e-06
-2.0496e-05
0.000213507
-9.46081e-06
-2.98044e-05
0.000222866
-9.24058e-06
-3.84978e-05
0.000229369
-9.08311e-06
-4.66819e-05
0.000238211
-9.22337e-06
-5.47116e-05
0.000251788
-9.86051e-06
-6.30986e-05
0.000271872
-1.12621e-05
-7.258e-05
0.000300507
-1.38109e-05
-8.42273e-05
0.000340305
-1.80282e-05
-9.98349e-05
0.000394753
-2.44642e-05
-0.00012281
0.000467545
-3.27628e-05
-0.000160939
0.000560262
-3.85711e-05
-0.000230305
0.00066281
-2.88676e-05
-0.000353637
0.000738059
1.70537e-05
-0.000541269
0.000704666
0.000112797
-0.000736011
0.00045595
0.000216569
-0.00072918
-7.32699e-05
0.000209996
-0.000428695
-0.000541411
7.61665e-05
-0.000497516
-8.35449e-05
-2.69135e-06
0.000123918
-7.627e-06
-1.01808e-05
0.000206168
-1.01463e-05
-1.80503e-05
0.000231896
-1.05197e-05
-2.47058e-05
0.000239616
-1.00943e-05
-2.95849e-05
0.000243894
-9.64587e-06
-3.26582e-05
0.000250751
-9.46716e-06
-3.40106e-05
0.000262905
-9.76499e-06
-3.36721e-05
0.000282302
-1.07681e-05
-3.16901e-05
0.000311272
-1.27469e-05
-2.82821e-05
0.000352757
-1.58593e-05
-2.45849e-05
0.000410707
-1.9651e-05
-2.50215e-05
0.000488859
-2.08772e-05
-4.2686e-05
0.000586711
-8.78458e-06
-0.000109054
0.000687939
4.12399e-05
-0.000275257
0.000745167
0.000159094
-0.000576419
0.000658797
0.000347031
-0.000901197
0.000267228
0.0005135
-0.000896013
-0.000559604
0.00048115
-0.000541854
-0.00116385
0.000268284
-0.00106581
2.64401e-05
-3.47407e-06
0.000136165
-8.77305e-06
-1.12093e-05
0.000225521
-1.16172e-05
-1.78953e-05
0.000250428
-1.18461e-05
-2.18268e-05
0.000254639
-1.10919e-05
-2.24999e-05
0.000254823
-1.02557e-05
-1.98036e-05
0.000257734
-9.67864e-06
-1.35538e-05
0.000266207
-9.55195e-06
-3.15842e-06
0.000281924
-1.00173e-05
1.19565e-05
0.000307354
-1.11972e-05
3.25197e-05
0.000345006
-1.28128e-05
5.8339e-05
0.000398269
-1.33818e-05
8.43659e-05
0.000469891
-7.05893e-06
8.97992e-05
0.000558033
2.32449e-05
2.20287e-05
0.000645247
0.000110462
-0.000203636
0.000681851
0.000288981
-0.000630925
0.000542918
0.000543168
-0.00103678
-5.59585e-05
0.00072904
-0.00103809
-0.0011558
0.000597511
-0.000680579
-0.00183146
0.0003101
-0.00179334
4.69554e-05
-6.43076e-06
0.000153512
-1.09167e-05
-1.59752e-05
0.000249482
-1.44165e-05
-2.19598e-05
0.000271066
-1.46529e-05
-2.30008e-05
0.000269178
-1.34981e-05
-1.91418e-05
0.000263009
-1.20449e-05
-1.0435e-05
0.000259819
-1.07925e-05
3.5893e-06
0.000262187
-1.00045e-05
2.36306e-05
0.000271618
-9.73539e-06
5.14374e-05
0.0002897
-1.0153e-05
8.88319e-05
0.000318212
-1.06002e-05
0.000136307
0.000359622
-8.82766e-06
0.000188914
0.000414881
2.40219e-06
0.000222244
0.000482243
4.24603e-05
0.000172045
0.00054688
0.000148566
-7.63141e-05
0.000571383
0.000358827
-0.000537597
0.000379447
0.000624754
-0.000976575
-0.000368231
0.000751251
-0.00107936
-0.00155301
0.000499989
-0.00079422
-0.00234962
0.000233017
-0.00254308
-4.44897e-05
-1.20424e-05
0.00017973
-1.41757e-05
-2.52666e-05
0.000280317
-1.76112e-05
-3.15066e-05
0.000294754
-1.74476e-05
-3.04877e-05
0.000283713
-1.55544e-05
-2.24673e-05
0.000268506
-1.35172e-05
-7.89515e-06
0.000256989
-1.17416e-05
1.34135e-05
0.000251358
-1.04789e-05
4.26108e-05
0.00025222
-9.79967e-06
8.17081e-05
0.000260435
-9.83183e-06
0.00013341
0.000276472
-9.96171e-06
0.00019915
0.000301574
-7.69199e-06
0.000275911
0.000334478
3.64237e-06
0.000343351
0.000372816
4.19868e-05
0.000348223
0.000402598
0.00013941
0.000182421
0.000402654
0.000334532
-0.00019789
0.000200078
0.00055968
-0.000657646
-0.000529274
0.000620798
-0.000935053
-0.00164825
0.000372651
-0.000800646
-0.00265347
0.000169444
-0.00317435
-0.00016937
-3.39042e-05
0.00023561
-2.19749e-05
-5.16514e-05
0.000324997
-2.69324e-05
-5.49793e-05
0.000324296
-2.62147e-05
-4.70644e-05
0.000299163
-2.33643e-05
-3.17286e-05
0.000272974
-1.98037e-05
-1.02573e-05
0.000252048
-1.65299e-05
1.77344e-05
0.000237422
-1.40563e-05
5.40145e-05
0.00022848
-1.25406e-05
0.000101106
0.000225562
-1.22186e-05
0.000162368
0.00022789
-1.26794e-05
0.000239549
0.000235932
-1.15394e-05
0.000331788
0.000246164
-3.9252e-06
0.000424488
0.000256748
2.33679e-05
0.000483809
0.000251071
9.22056e-05
0.000427955
0.000222096
0.000236412
0.00017257
4.80245e-05
0.000407438
-0.000279922
-0.000521036
0.000444255
-0.000709912
-0.00151913
0.000300861
-0.000746336
-0.00274375
0.000126702
-0.00362737
-0.000293314
-2.97332e-05
0.000302881
-3.75378e-05
-6.59502e-05
0.000399846
-3.86328e-05
-7.74373e-05
0.000371636
-3.58522e-05
-7.28003e-05
0.000323791
-2.92655e-05
-5.44693e-05
0.000279101
-2.44587e-05
-2.61854e-05
0.000244033
-2.02695e-05
1.04343e-05
0.000218074
-1.72715e-05
5.57854e-05
0.000198674
-1.55444e-05
0.000111556
0.000185397
-1.56057e-05
0.000180903
0.000175755
-1.72117e-05
0.000264961
0.00017066
-1.87857e-05
0.000363684
0.000164356
-1.69148e-05
0.000464189
0.000158437
-2.19344e-06
0.000545879
0.000133746
3.56342e-05
0.000552325
9.2509e-05
0.000123141
0.000397438
-4.13503e-05
0.000244262
2.14723e-05
-0.000424353
0.000279283
-0.000472099
-0.00127599
0.00025044
-0.000646227
-0.00265585
8.62321e-05
-0.00385605
-0.000417547
-0.000182163
0.00053133
-4.62869e-05
-0.000176874
0.000454795
-6.02374e-05
-0.000142547
0.000398499
-6.11911e-05
-0.000102038
0.000338689
-5.54059e-05
-5.14285e-05
0.000273363
-4.48714e-05
4.14593e-06
0.000223865
-3.54065e-05
6.32856e-05
0.000187632
-2.86975e-05
0.000127525
0.00015923
-2.47959e-05
0.000197911
0.000138995
-2.39848e-05
0.000278351
0.00012161
-2.62951e-05
0.000368191
0.000111071
-3.02511e-05
0.000468571
9.7582e-05
-3.36066e-05
0.000568193
8.90415e-05
-3.02269e-05
0.000650911
6.32258e-05
-1.21966e-05
0.000688829
2.4962e-05
2.96286e-05
0.000615129
-8.0162e-05
0.000112511
0.000391296
-0.000337058
0.000136538
-6.31453e-05
-0.00100666
0.000185112
-0.000380227
-0.0023765
3.77316e-05
-0.00368621
-0.000550075
-0.00037232
0.00107607
-0.000172425
-0.000262174
0.000477685
-0.000133035
-0.000103354
0.000346698
-0.000107019
7.25171e-05
0.00024454
-8.17224e-05
0.000241242
0.000170804
-6.61651e-05
0.000397115
0.0001219
-5.39087e-05
0.000538715
9.14488e-05
-4.5417e-05
0.000668961
6.94163e-05
-4.0431e-05
0.000790392
5.58659e-05
-3.8302e-05
0.000907941
4.37012e-05
-3.96404e-05
0.00102401
3.8108e-05
-4.31071e-05
0.00114118
2.91652e-05
-4.87537e-05
0.00125809
2.45685e-05
-5.24386e-05
0.00136133
8.26965e-06
-4.82823e-05
0.00144089
-1.92097e-05
-3.53876e-05
0.0014516
-9.81341e-05
7.25872e-06
0.00135518
-0.000283607
4.29772e-05
0.000974418
-0.000715465
8.95585e-05
0.000274869
-0.00166703
-9.92524e-06
-0.00272942
-0.000681916
0.00122579
-0.00014971
0.00186622
-0.00016275
0.00237662
-0.0001637
0.00277178
-0.000150626
0.00307647
-0.000133882
0.00331812
-0.000119753
0.00351592
-0.000106351
0.00368204
-9.67007e-05
0.00382497
-8.70683e-05
0.0039507
-8.20249e-05
0.00406481
-7.6e-05
0.00416897
-7.5e-05
0.00426355
-7.00128e-05
0.00434129
-6.94626e-05
0.00437996
-5.78795e-05
0.00433797
-5.61485e-05
0.00408646
-3.20953e-05
0.00343435
-6.33538e-05
0.00189353
-0.000126213
-0.000835888
-5.4571e-06
6.61265e-06
-2.21795e-06
-1.72788e-05
1.34574e-05
-2.36339e-06
-3.14834e-05
1.59283e-05
-2.24383e-06
-4.65753e-05
1.68629e-05
-2.18164e-06
-6.2074e-05
1.73727e-05
-2.3107e-06
-7.78287e-05
1.78154e-05
-2.62894e-06
-9.36749e-05
1.81984e-05
-3.15413e-06
-0.000109291
1.83917e-05
-3.93848e-06
-0.000124126
1.81986e-05
-5.05669e-06
-0.000137342
1.73692e-05
-6.59511e-06
-0.000147786
1.56135e-05
-8.63683e-06
-0.000153992
1.26353e-05
-1.12371e-05
-0.000154291
8.20664e-06
-1.43824e-05
-0.000147056
2.29605e-06
-1.79422e-05
-0.000131127
-4.80143e-06
-2.1573e-05
-0.000106498
-1.21434e-05
-2.47301e-05
-7.5127e-05
-1.80521e-05
-2.6681e-05
-4.1521e-05
-2.02259e-05
-2.66878e-05
-1.27223e-05
-1.6497e-05
-2.401e-05
-4.36221e-06
-1.50073e-05
-1.2585e-05
2.09349e-05
-4.41812e-06
-3.51329e-05
3.86906e-05
-5.46395e-06
-6.15666e-05
4.52256e-05
-5.58972e-06
-8.94658e-05
4.76883e-05
-5.57058e-06
-0.000117883
4.88465e-05
-5.73881e-06
-0.000146348
4.95942e-05
-6.14777e-06
-0.000174393
4.99818e-05
-6.84903e-06
-0.000201333
4.97133e-05
-7.93113e-06
-0.000226154
4.83179e-05
-9.51072e-06
-0.000247432
4.51975e-05
-1.17214e-05
-0.000263302
3.96707e-05
-1.46926e-05
-0.000271491
3.10533e-05
-1.85103e-05
-0.000269489
1.88405e-05
-2.31555e-05
-0.000255085
3.20712e-06
-2.84655e-05
-0.000226607
-1.53199e-05
-3.39329e-05
-0.000184214
-3.43093e-05
-3.86799e-05
-0.000131006
-4.96286e-05
-4.15608e-05
-7.40362e-05
-5.55521e-05
-4.13046e-05
-2.4499e-05
-4.65458e-05
-3.64234e-05
-1.64906e-05
-2.11472e-05
-1.56592e-05
3.87241e-05
-5.72694e-06
-4.30096e-05
6.93918e-05
-7.32742e-06
-7.47906e-05
8.05984e-05
-7.61443e-06
-0.000108134
8.4689e-05
-7.60441e-06
-0.000141933
8.643e-05
-7.75292e-06
-0.00017563
8.73473e-05
-8.1521e-06
-0.000208688
8.75647e-05
-8.88043e-06
-0.000240349
8.6634e-05
-1.00574e-05
-0.000269507
8.38132e-05
-1.18402e-05
-0.000294606
7.81426e-05
-1.44174e-05
-0.000313578
6.85094e-05
-1.79859e-05
-0.000323859
5.37863e-05
-2.271e-05
-0.000322533
3.31143e-05
-2.86557e-05
-0.000306573
6.43189e-06
-3.56594e-05
-0.000273613
-2.54163e-05
-4.30933e-05
-0.000223258
-5.85436e-05
-4.98065e-05
-0.000158744
-8.59497e-05
-5.4016e-05
-8.88799e-05
-9.72753e-05
-5.3609e-05
-2.84889e-05
-8.2121e-05
-4.638e-05
-2.99183e-05
-2.56918e-05
-1.6735e-05
5.79394e-05
-6.74649e-06
-4.5998e-05
0.00010257
-8.79936e-06
-7.99267e-05
0.000118735
-9.22138e-06
-0.000115481
0.000124521
-9.22638e-06
-0.000151558
0.000126911
-9.36925e-06
-0.000187667
0.000128142
-9.77713e-06
-0.000223363
0.000128458
-1.05577e-05
-0.000258007
0.000127299
-1.18687e-05
-0.000290608
0.000123686
-1.39234e-05
-0.000319692
0.000116305
-1.69938e-05
-0.000343161
0.000103557
-2.13964e-05
-0.000358185
8.37102e-05
-2.74458e-05
-0.000361216
5.52514e-05
-3.53668e-05
-0.000348236
1.75963e-05
-4.51329e-05
-0.000315397
-2.85864e-05
-5.61415e-05
-0.000260457
-7.86837e-05
-6.66779e-05
-0.000185829
-0.000122301
-7.37951e-05
-0.000102198
-0.000142681
-7.35379e-05
-3.02721e-05
-0.000121291
-6.21811e-05
-4.14417e-05
-3.25855e-05
-1.68258e-05
7.75774e-05
-7.55027e-06
-4.66051e-05
0.000136792
-1.0005e-05
-8.1236e-05
0.000158156
-1.05493e-05
-0.000117633
0.000165787
-1.05843e-05
-0.000154774
0.000169057
-1.07574e-05
-0.000192323
0.000171008
-1.12336e-05
-0.000230046
0.000172075
-1.21566e-05
-0.000267558
0.000171661
-1.37355e-05
-0.000304146
0.000168616
-1.62636e-05
-0.000338584
0.000161309
-2.01384e-05
-0.000368888
0.000147623
-2.58686e-05
-0.000392035
0.000125041
-3.40426e-05
-0.000403733
9.0998e-05
-4.52028e-05
-0.000398402
4.3684e-05
-5.95931e-05
-0.000369966
-1.68859e-05
-7.68915e-05
-0.00031285
-8.71262e-05
-9.45819e-05
-0.000226642
-0.000153717
-0.000107508
-0.000123022
-0.000191608
-0.000107982
-3.28611e-05
-0.000166298
-8.89442e-05
-5.0353e-05
-4.33599e-05
-1.64381e-05
9.71523e-05
-8.22946e-06
-4.60438e-05
0.000171359
-1.10657e-05
-8.06823e-05
0.000198157
-1.17288e-05
-0.000117271
0.000207834
-1.18066e-05
-0.000154899
0.000212299
-1.20387e-05
-0.000193442
0.000215517
-1.26326e-05
-0.000232958
0.000218224
-1.3776e-05
-0.000273437
0.000219899
-1.57436e-05
-0.000314607
0.000219346
-1.89357e-05
-0.000355703
0.000214731
-2.39274e-05
-0.00039512
0.000203486
-3.15176e-05
-0.00042994
0.000182266
-4.2747e-05
-0.000455361
0.000147138
-5.87866e-05
-0.000464213
9.43166e-05
-8.05966e-05
-0.000447511
2.18348e-05
-0.000108084
-0.000394404
-7.0716e-05
-0.000137871
-0.000297436
-0.000171906
-0.000160639
-0.000164051
-0.000247709
-0.000162059
-4.08817e-05
-0.000228366
-0.000130378
-6.11305e-05
-5.88035e-05
-1.57759e-05
0.000116398
-8.86914e-06
-4.48069e-05
0.000205883
-1.2093e-05
-7.90153e-05
0.000238316
-1.28721e-05
-0.000115324
0.000250203
-1.29898e-05
-0.000152935
0.000256144
-1.32815e-05
-0.000191956
0.000261166
-1.40025e-05
-0.000232799
0.00026645
-1.53915e-05
-0.000275935
0.000271723
-1.78013e-05
-0.000321717
0.000275953
-2.17646e-05
-0.000370139
0.000277357
-2.8089e-05
-0.000420423
0.0002732
-3.79825e-05
-0.000470398
0.000259568
-5.31694e-05
-0.000515663
0.000231286
-7.58421e-05
-0.000548532
0.000182029
-0.000108044
-0.00055671
0.000104531
-0.000149709
-0.000524467
-9.27367e-06
-0.000194868
-0.000427044
-0.000168822
-0.000225232
-0.000254084
-0.000330864
-0.000222775
-6.88027e-05
-0.000345342
-0.000178408
-9.54259e-05
-7.86559e-05
-1.49121e-05
0.000135142
-9.5312e-06
-4.30726e-05
0.000240113
-1.31688e-05
-7.64637e-05
0.000278289
-1.40536e-05
-0.000111977
0.00029241
-1.41835e-05
-0.0001489
0.000299935
-1.44974e-05
-0.000187566
0.000307114
-1.53023e-05
-0.000228755
0.000315735
-1.68898e-05
-0.000273483
0.000325991
-1.9694e-05
-0.00032289
0.000337325
-2.43918e-05
-0.000378053
0.000348445
-3.20619e-05
-0.00043962
0.000357052
-4.44157e-05
-0.000507239
0.000359484
-6.40429e-05
-0.000578779
0.000350243
-9.43124e-05
-0.000649019
0.000320245
-0.000137724
-0.000706481
0.000251318
-0.000190594
-0.000725682
0.00010691
-0.00023496
-0.000658234
-0.000159233
-0.000245597
-0.000443884
-0.000500039
-0.000225958
-0.00015025
-0.000601509
-0.000194719
-0.000216747
-0.000100943
-1.39088e-05
0.000153299
-1.02711e-05
-4.09749e-05
0.000273905
-1.43674e-05
-7.31618e-05
0.000317762
-1.53357e-05
-0.000107261
0.000333887
-1.54221e-05
-0.000142589
0.000342782
-1.56796e-05
-0.000179658
0.000352087
-1.64673e-05
-0.000219574
0.000364364
-1.81241e-05
-0.000263876
0.000380493
-2.11512e-05
-0.000314525
0.000400742
-2.63459e-05
-0.00037387
0.000424887
-3.50199e-05
-0.000444548
0.000451993
-4.93143e-05
-0.000529317
0.00047999
-7.23661e-05
-0.000630914
0.000504175
-0.000107181
-0.000750909
0.000510354
-0.000151475
-0.000884533
0.000457348
-0.000186724
-0.00100057
0.000254168
-0.000176565
-0.00100379
-0.000205285
-0.000116075
-0.00075733
-0.000828795
-9.21902e-05
-0.000320408
-0.00107061
-0.000137807
-0.000534424
-0.000118228
-1.28914e-05
0.000170951
-1.11586e-05
-3.87727e-05
0.000307295
-1.57816e-05
-6.94087e-05
0.000356504
-1.68009e-05
-0.000101402
0.000374028
-1.67616e-05
-0.000134019
0.000383604
-1.68442e-05
-0.000167866
0.000394427
-1.74583e-05
-0.000204257
0.000409948
-1.89739e-05
-0.0002451
0.000431901
-2.19215e-05
-0.000292998
0.000461664
-2.71377e-05
-0.000351438
0.000500587
-3.59845e-05
-0.000425078
0.000549936
-5.05365e-05
-0.000520342
0.000610127
-7.28462e-05
-0.000646994
0.000676838
-0.000100465
-0.000818011
0.00072408
-0.000115194
-0.00103866
0.000670858
-7.44717e-05
-0.00126282
0.000357963
5.11786e-05
-0.00134128
-0.000354826
0.00018761
-0.00108435
-0.00127589
0.000154427
-0.0005493
-0.00167938
-2.27659e-05
-0.00112975
-9.84265e-05
-1.21023e-05
0.000188469
-1.23012e-05
-3.69611e-05
0.000340639
-1.75416e-05
-6.58349e-05
0.000394479
-1.8562e-05
-9.50384e-05
0.00041228
-1.82891e-05
-0.000123717
0.000421246
-1.80461e-05
-0.000152465
0.000432242
-1.82903e-05
-0.000182607
0.000449626
-1.93953e-05
-0.000216103
0.00047599
-2.18557e-05
-0.000255725
0.000513872
-2.6397e-05
-0.000305401
0.00056628
-3.40442e-05
-0.000370905
0.000636711
-4.57352e-05
-0.000461243
0.000727193
-5.94912e-05
-0.000592199
0.00083018
-6.09557e-05
-0.000786984
0.000901989
-1.19925e-05
-0.00106059
0.000818897
0.000142621
-0.00135409
0.000373895
0.000390369
-0.00149342
-0.000559056
0.000560125
-0.00126529
-0.00170765
0.000413622
-0.000717331
-0.00228053
0.000129352
-0.00191977
-1.0853e-05
-1.20164e-05
0.000206755
-1.38968e-05
-3.64602e-05
0.000374854
-1.99182e-05
-6.35954e-05
0.000432007
-2.09133e-05
-8.94034e-05
0.000448285
-2.02911e-05
-0.000112935
0.000454674
-1.95424e-05
-0.000134696
0.000463725
-1.91891e-05
-0.000155806
0.000480564
-1.95931e-05
-0.000177849
0.000508414
-2.11499e-05
-0.000203064
0.000550652
-2.43106e-05
-0.000234696
0.00061138
-2.93276e-05
-0.000278031
0.000695327
-3.49329e-05
-0.000342546
0.000804366
-3.35356e-05
-0.00044722
0.000926392
-3.21972e-07
-0.000627436
0.00100082
0.00012262
-0.000912786
0.000881182
0.000382159
-0.00125257
0.000342036
0.00071867
-0.00145198
-0.000710728
0.000864586
-0.00126624
-0.00198034
0.0005681
-0.000755676
-0.00273714
0.000214337
-0.00269984
5.08391e-05
-1.32264e-05
0.000227403
-1.6195e-05
-3.84304e-05
0.000411521
-2.30797e-05
-6.4286e-05
0.000469912
-2.38953e-05
-8.64442e-05
0.000482097
-2.27458e-05
-0.000103895
0.000483205
-2.13358e-05
-0.000117068
0.000487455
-2.02356e-05
-0.000126785
0.000500491
-1.9763e-05
-0.000133963
0.000525738
-2.01629e-05
-0.000139777
0.000566821
-2.15537e-05
-0.000146007
0.000628049
-2.32513e-05
-0.000156354
0.000714254
-2.19619e-05
-0.000179155
0.000826224
-6.11548e-06
-0.000237441
0.000948766
5.91574e-05
-0.00037802
0.00101757
0.000234296
-0.000654606
0.000887148
0.0005596
-0.00102023
0.000326996
0.000923834
-0.00124514
-0.000741685
0.000984904
-0.00112627
-0.00204552
0.000543816
-0.000721515
-0.00300323
0.000171433
-0.00336819
-6.21451e-06
-1.76522e-05
0.00025409
-1.99515e-05
-4.59204e-05
0.000453662
-2.82893e-05
-7.08828e-05
0.000509273
-2.90511e-05
-8.85468e-05
0.000513508
-2.72453e-05
-9.8827e-05
0.000506309
-2.48681e-05
-0.000102343
0.000502852
-2.26729e-05
-9.94543e-05
0.000508629
-2.10312e-05
-9.01551e-05
0.000526798
-2.00941e-05
-7.44057e-05
0.000560687
-1.97676e-05
-5.21344e-05
0.000613842
-1.86645e-05
-2.46293e-05
0.000690446
-1.25247e-05
1.5607e-06
0.000790224
1.22129e-05
2.26727e-06
0.000899261
9.1259e-05
-7.33496e-05
0.000959492
0.00028226
-0.000292523
0.000846986
0.000618162
-0.000614292
0.00033105
0.000942469
-0.000835759
-0.000678081
0.000909114
-0.000860367
-0.00193733
0.000416413
-0.000617223
-0.0031027
8.93434e-05
-0.00391807
-0.000111836
-2.37987e-05
0.000289019
-2.53059e-05
-5.73936e-05
0.000504309
-3.46639e-05
-8.38457e-05
0.000553278
-3.50009e-05
-9.93641e-05
0.000545623
-3.2151e-05
-0.000103316
0.000525531
-2.87874e-05
-9.68826e-05
0.000510284
-2.56077e-05
-8.06937e-05
0.000504964
-2.30027e-05
-5.43934e-05
0.000511768
-2.10699e-05
-1.69145e-05
0.000533048
-1.96717e-05
3.32001e-05
0.000570921
-1.71549e-05
9.67229e-05
0.000628606
-9.37537e-06
0.000171669
0.000703432
1.54887e-05
0.000241648
0.000783806
8.74617e-05
0.000265602
0.000822939
0.00025201
0.000170094
0.000735257
0.000541769
-6.11382e-05
0.000323435
0.000798527
-0.000291392
-0.000552523
0.000725494
-0.000494705
-0.00168097
0.000319599
-0.000434793
-0.00303577
4.2601e-05
-0.00431292
-0.000209306
-5.74409e-05
0.000359869
-3.53836e-05
-9.79079e-05
0.000565437
-4.75924e-05
-0.000118193
0.000594842
-4.74939e-05
-0.000121847
0.000569486
-4.35725e-05
-0.000113842
0.00053618
-3.84574e-05
-9.59216e-05
0.000509254
-3.34201e-05
-6.77019e-05
0.000491843
-2.91549e-05
-2.73257e-05
0.000484753
-2.59022e-05
2.75394e-05
0.000489632
-2.36683e-05
9.95807e-05
0.000507215
-2.10151e-05
0.000191771
0.000539779
-1.49033e-05
0.000304758
0.000583084
3.43552e-06
0.000427678
0.000628951
5.53034e-05
0.000534036
0.000640026
0.00016876
0.000561614
0.000570051
0.000374041
0.000445037
0.000276568
0.000570882
0.000206357
-0.000385263
0.000515675
-0.000136716
-0.0012988
0.000261768
-0.000224636
-0.00284299
2.18423e-05
-0.00454281
-0.000288067
-3.91751e-05
0.00041537
-5.38642e-05
-0.000110783
0.000665178
-6.67663e-05
-0.000150136
0.000662185
-6.38421e-05
-0.000160181
0.000606014
-5.57491e-05
-0.000149086
0.000549323
-4.86971e-05
-0.000121919
0.000503942
-4.21241e-05
-8.08716e-05
0.000470282
-3.67574e-05
-2.52399e-05
0.000446401
-3.28238e-05
4.64615e-05
0.00043301
-3.06851e-05
0.000137653
0.000428285
-2.94726e-05
0.000250636
0.00043497
-2.69596e-05
0.000387211
0.000446708
-1.71139e-05
0.000538024
0.000463451
1.24933e-05
0.00068368
0.000453135
7.68685e-05
0.000780951
0.000398143
0.000197778
0.000746597
0.000214911
0.000340273
0.000550165
-0.000226187
0.000316639
0.000206152
-0.000905973
0.000201626
5.12844e-05
-0.00261148
9.59388e-06
-0.00455609
-0.000352977
-0.000188622
0.000618778
-6.10723e-05
-0.000208046
0.000710509
-8.61453e-05
-0.000214084
0.00069808
-9.10479e-05
-0.000210904
0.000632276
-8.48479e-05
-0.000181962
0.000549376
-7.38669e-05
-0.000133488
0.000482825
-6.27638e-05
-6.92495e-05
0.000431274
-5.39283e-05
1.09944e-05
0.000389267
-4.79067e-05
0.000105965
0.000359255
-4.52005e-05
0.000218829
0.000334696
-4.55695e-05
0.000348448
0.000322121
-4.70217e-05
0.000497103
0.000310409
-4.59626e-05
0.000657373
0.000308358
-3.54045e-05
0.000809973
0.000293028
-4.68963e-06
0.00093889
0.000249462
4.93926e-05
0.000976893
0.00014566
0.00014376
0.000929191
-0.00017138
0.000129433
0.000763599
-0.00066976
0.000114492
0.000497175
-0.0023021
-5.22922e-06
-0.004202
-0.000406994
-0.000665204
0.0012828
-0.000171246
-0.000620546
0.000701532
-0.000168716
-0.000471962
0.000587447
-0.000144969
-0.000266862
0.000470132
-0.000124677
-5.3027e-05
0.000378859
-0.000109483
0.000159484
0.000312249
-9.5844e-05
0.00036493
0.000266004
-8.55925e-05
0.000563174
0.000229062
-7.84686e-05
0.00075539
0.000203352
-7.46146e-05
0.000944131
0.000180422
-7.41089e-05
0.00113312
0.000166528
-7.64995e-05
0.00132216
0.000152202
-7.95929e-05
0.0015186
0.000141898
-8.24133e-05
0.00171082
0.000126825
-7.42994e-05
0.00189665
8.89597e-05
-6.0718e-05
0.00203567
3.1754e-05
-1.78501e-05
0.00208196
-0.00018292
8.22602e-06
0.00202895
-0.000544915
1.77236e-05
0.00138728
-0.00163921
-3.11383e-05
-0.00303928
-0.000457353
0.00126906
-0.000135967
0.00196852
-0.000160676
0.00255964
-0.000167371
0.00304165
-0.000162511
0.00343966
-0.000153032
0.00377498
-0.000142824
0.00406679
-0.000132157
0.0043233
-0.000124151
0.00455504
-0.000115454
0.00476453
-0.000111094
0.00495991
-0.000104847
0.00514193
-0.000104819
0.00531262
-9.88046e-05
0.0054716
-0.000101621
0.00559173
-8.90483e-05
0.00566136
-9.40282e-05
0.00551767
-7.13216e-05
0.00501481
-0.000105408
0.00336245
-0.000113066
-0.000512725
-6.25246e-06
6.90898e-06
-2.87447e-06
-2.00045e-05
1.50411e-05
-3.65242e-06
-3.65476e-05
1.80514e-05
-3.75212e-06
-5.40206e-05
1.91098e-05
-3.81853e-06
-7.1835e-05
1.95723e-05
-4.06854e-06
-8.98164e-05
1.98989e-05
-4.54643e-06
-0.00010778
2.0106e-05
-5.29652e-06
-0.000125368
2.00381e-05
-6.3889e-06
-0.00014197
1.9459e-05
-7.91355e-06
-0.000156664
1.80679e-05
-9.96871e-06
-0.000168175
1.55154e-05
-1.26418e-05
-0.000174877