/*--------------------------------*- C++ -*----------------------------------*\
  =========                 |
  \\      /  F ield         | OpenFOAM: The Open Source CFD Toolbox
   \\    /   O peration     | Website:  https://openfoam.org
    \\  /    A nd           | Version:  10
     \\/     M anipulation  |
\*---------------------------------------------------------------------------*/
FoamFile
{
    format      ascii;
    class       surfaceScalarField;
    location    "4.575";
    object      phi;
}
// * * * * * * * * * * * * * * * * * * * * * * * * * * * * * * * * * * * * * //

dimensions      [0 3 -1 0 0 0 0];

internalField   nonuniform List<scalar> 
22800
(
-2.21898e-06
2.55932e-06
-3.42562e-07
-7.33887e-06
5.03509e-06
8.48058e-08
-1.32292e-05
5.63927e-06
2.51097e-07
-1.92341e-05
5.67303e-06
3.31827e-07
-2.51022e-05
5.5348e-06
3.33345e-07
-3.06931e-05
5.30676e-06
2.84083e-07
-3.58743e-05
4.9829e-06
1.98272e-07
-4.04902e-05
4.53855e-06
7.73461e-08
-4.43624e-05
3.94506e-06
-7.28333e-08
-4.72859e-05
3.17663e-06
-2.5309e-07
-4.90282e-05
2.21454e-06
-4.72259e-07
-4.9344e-05
1.05091e-06
-7.35124e-07
-4.79975e-05
-3.2607e-07
-1.02038e-06
-4.48075e-05
-1.86919e-06
-1.32081e-06
-3.9673e-05
-3.51822e-06
-1.61626e-06
-3.26356e-05
-5.16334e-06
-1.87409e-06
-2.39627e-05
-6.63505e-06
-2.03782e-06
-1.43022e-05
-7.63537e-06
-2.02522e-06
-5.0241e-06
-7.49705e-06
-1.781e-06
-4.23913e-06
-7.84969e-07
-4.64193e-06
8.31951e-06
-1.11826e-06
-1.33859e-05
1.45257e-05
-7.46641e-07
-2.3156e-05
1.59765e-05
-5.67122e-07
-3.29913e-05
1.59312e-05
-4.22942e-07
-4.24895e-05
1.53831e-05
-3.50106e-07
-5.14046e-05
1.45442e-05
-3.22261e-07
-5.95141e-05
1.34175e-05
-3.25102e-07
-6.65784e-05
1.19612e-05
-3.5831e-07
-7.23316e-05
1.01238e-05
-4.25491e-07
-7.64794e-05
7.85519e-06
-5.30821e-07
-7.86966e-05
5.10878e-06
-6.77034e-07
-7.86821e-05
1.89914e-06
-8.62725e-07
-7.61282e-05
-1.77946e-06
-1.10053e-06
-7.07776e-05
-5.86456e-06
-1.35521e-06
-6.25261e-05
-1.01561e-05
-1.61357e-06
-5.14628e-05
-1.43886e-05
-1.83806e-06
-3.79925e-05
-1.81468e-05
-1.95862e-06
-2.30541e-05
-2.06928e-05
-1.88088e-06
-8.59947e-06
-2.03957e-05
-1.55603e-06
-1.24429e-05
-3.95673e-07
-5.3983e-06
1.52032e-05
-1.48536e-06
-1.53598e-05
2.56425e-05
-1.15529e-06
-2.64095e-05
2.79944e-05
-9.68193e-07
-3.74882e-05
2.78051e-05
-7.95227e-07
-4.81648e-05
2.67473e-05
-6.87618e-07
-5.8177e-05
2.51773e-05
-6.20931e-07
-6.72868e-05
2.31099e-05
-5.82541e-07
-7.52394e-05
2.04875e-05
-5.73846e-07
-8.17499e-05
1.72362e-05
-6.01906e-07
-8.65019e-05
1.32805e-05
-6.73321e-07
-8.91596e-05
8.55901e-06
-7.92591e-07
-8.9344e-05
3.05038e-06
-9.66781e-07
-8.66783e-05
-3.25806e-06
-1.18708e-06
-8.08692e-05
-1.02268e-05
-1.44686e-06
-7.17362e-05
-1.75668e-05
-1.72227e-06
-5.93149e-05
-2.48402e-05
-1.96973e-06
-4.40053e-05
-3.13507e-05
-2.10565e-06
-2.68461e-05
-3.5834e-05
-2.01803e-06
-1.00853e-05
-3.55035e-05
-1.65297e-06
-2.21778e-05
-3.50435e-07
-5.65741e-06
2.26414e-05
-1.78086e-06
-1.61731e-05
3.76533e-05
-1.49507e-06
-2.78302e-05
4.09583e-05
-1.3068e-06
-3.95296e-05
4.06194e-05
-1.1148e-06
-5.08403e-05
3.90425e-05
-9.84541e-07
-6.15081e-05
3.67379e-05
-8.92878e-07
-7.13029e-05
3.37335e-05
-8.28794e-07
-7.99733e-05
2.99539e-05
-7.95936e-07
-8.72313e-05
2.52962e-05
-8.02e-07
-9.27443e-05
1.96494e-05
-8.5585e-07
-9.61331e-05
1.29136e-05
-9.65782e-07
-9.69851e-05
5.0366e-06
-1.1343e-06
-9.48309e-05
-4.02015e-06
-1.39211e-06
-8.92193e-05
-1.4149e-05
-1.68946e-06
-7.98303e-05
-2.4941e-05
-2.01471e-06
-6.65655e-05
-3.5787e-05
-2.31799e-06
-4.97646e-05
-4.56511e-05
-2.50049e-06
-3.05547e-05
-5.26207e-05
-2.42317e-06
-1.15251e-05
-5.25177e-05
-2.01543e-06
-3.32017e-05
-5.01131e-07
-5.84706e-06
3.05356e-05
-2.04706e-06
-1.68608e-05
5.0465e-05
-1.798e-06
-2.90951e-05
5.48025e-05
-1.60995e-06
-4.14103e-05
5.43396e-05
-1.40504e-06
-5.338e-05
5.22739e-05
-1.26168e-06
-6.47676e-05
4.92831e-05
-1.15753e-06
-7.5362e-05
4.54108e-05
-1.08288e-06
-8.49266e-05
4.05619e-05
-1.04339e-06
-9.31783e-05
3.45973e-05
-1.04943e-06
-9.97715e-05
2.73559e-05
-1.11328e-06
-0.000104286
1.86752e-05
-1.24732e-06
-0.000106215
8.43228e-06
-1.46599e-06
-0.000104998
-3.46451e-06
-1.77345e-06
-9.9969e-05
-1.7025e-05
-2.15267e-06
-9.05741e-05
-3.17518e-05
-2.58408e-06
-7.64675e-05
-4.68881e-05
-3.00545e-06
-5.78215e-05
-6.1008e-05
-3.2891e-06
-3.58448e-05
-7.13458e-05
-3.25166e-06
-1.3634e-05
-7.19411e-05
-2.78739e-06
-4.59213e-05
-9.14453e-07
-6.07511e-06
3.89451e-05
-2.33438e-06
-1.76854e-05
6.41956e-05
-2.12025e-06
-3.06167e-05
6.96671e-05
-1.93331e-06
-4.36761e-05
6.91168e-05
-1.71782e-06
-5.64441e-05
6.66073e-05
-1.56546e-06
-6.87097e-05
6.30036e-05
-1.45486e-06
-8.02919e-05
5.83709e-05
-1.37795e-06
-9.09819e-05
5.25947e-05
-1.34279e-06
-0.000100516
4.54937e-05
-1.36278e-06
-0.000108546
3.68403e-05
-1.45429e-06
-0.000114615
2.6379e-05
-1.63474e-06
-0.000118126
1.38665e-05
-1.92329e-06
-0.000118388
-8.57288e-07
-2.34487e-06
-0.000114437
-1.81084e-05
-2.86763e-06
-0.000105374
-3.7331e-05
-3.48398e-06
-9.04432e-05
-5.77017e-05
-4.11713e-06
-6.94794e-05
-7.7375e-05
-4.59678e-06
-4.36821e-05
-9.2481e-05
-4.66212e-06
-1.68738e-05
-9.46152e-05
-4.13424e-06
-6.10964e-05
-1.69871e-06
-6.35843e-06
4.7984e-05
-2.68055e-06
-1.86925e-05
7.90376e-05
-2.50802e-06
-3.24594e-05
8.57567e-05
-2.32268e-06
-4.63982e-05
8.51502e-05
-2.09459e-06
-6.00997e-05
8.22401e-05
-1.9313e-06
-7.33894e-05
7.81066e-05
-1.81325e-06
-8.61311e-05
7.28477e-05
-1.73498e-06
-9.81633e-05
6.63348e-05
-1.70797e-06
-0.000109264
5.83442e-05
-1.74988e-06
-0.000119111
4.85705e-05
-1.88299e-06
-0.000127235
3.66358e-05
-2.13306e-06
-0.000132962
2.21233e-05
-2.53007e-06
-0.000135404
4.68625e-06
-3.10125e-06
-0.000133333
-1.6305e-05
-3.87382e-06
-0.000125281
-4.05822e-05
-4.80103e-06
-0.000109845
-6.73306e-05
-5.80674e-06
-8.62135e-05
-9.43458e-05
-6.66114e-06
-5.53124e-05
-0.000116409
-6.97287e-06
-2.19309e-05
-0.000121594
-6.40266e-06
-7.99064e-05
-3.12089e-06
-6.69829e-06
5.77963e-05
-3.11397e-06
-1.98883e-05
9.52244e-05
-2.9967e-06
-3.46209e-05
0.000103301
-2.8121e-06
-4.9551e-05
0.000102645
-2.56458e-06
-6.42853e-05
9.93567e-05
-2.38231e-06
-7.86992e-05
9.47696e-05
-2.24906e-06
-9.27208e-05
8.90329e-05
-2.16358e-06
-0.000106262
8.20181e-05
-2.14222e-06
-0.000119177
7.34679e-05
-2.2087e-06
-0.000131213
6.30002e-05
-2.39396e-06
-0.000141938
5.00984e-05
-2.73666e-06
-0.000150652
3.41197e-05
-3.28303e-06
-0.000156253
1.43641e-05
-4.07685e-06
-0.000157276
-1.0052e-05
-5.23005e-06
-0.000151477
-3.97139e-05
-6.66706e-06
-0.000136456
-7.40301e-05
-8.32192e-06
-0.000110215
-0.000110696
-9.89002e-06
-7.28238e-05
-0.000143026
-1.07744e-05
-3.01286e-05
-0.000154022
-1.02671e-05
-0.000104249
-5.78628e-06
-7.10518e-06
6.85676e-05
-3.66617e-06
-2.12932e-05
0.000113037
-3.62507e-06
-3.711e-05
0.000122556
-3.43769e-06
-5.311e-05
0.000121802
-3.15717e-06
-6.89231e-05
0.000118109
-2.9395e-06
-8.44912e-05
0.000113112
-2.7744e-06
-9.98297e-05
0.000107038
-2.66703e-06
-0.000114955
9.97842e-05
-2.6405e-06
-0.000129844
9.10832e-05
-2.72684e-06
-0.000144373
8.04983e-05
-2.96929e-06
-0.00015823
6.73819e-05
-3.42617e-06
-0.000170777
5.08383e-05
-4.17118e-06
-0.000180838
2.97188e-05
-5.29409e-06
-0.000186751
2.87936e-06
-7.01847e-06
-0.000185273
-3.19422e-05
-9.25001e-06
-0.000172657
-7.46312e-05
-1.20142e-05
-0.000144852
-0.000123573
-1.49281e-05
-9.99141e-05
-0.000170868
-1.70962e-05
-4.42121e-05
-0.000192682
-1.70417e-05
-0.000137226
-1.12347e-05
-7.61405e-06
8.05627e-05
-4.38103e-06
-2.29714e-05
0.00013284
-4.44527e-06
-3.99849e-05
0.000143816
-4.24641e-06
-5.70925e-05
0.000142818
-3.90836e-06
-7.39602e-05
0.000138603
-3.626e-06
-9.06167e-05
0.000133168
-3.39896e-06
-0.000107189
0.000126852
-3.24191e-06
-0.000123831
0.000119613
-3.18685e-06
-0.000140692
0.000111221
-3.27645e-06
-0.000157861
0.000101237
-3.5704e-06
-0.000175271
8.89473e-05
-4.15497e-06
-0.000192536
7.32546e-05
-5.15132e-06
-0.000208662
5.25719e-05
-6.727e-06
-0.000221484
2.47915e-05
-9.0899e-06
-0.00022773
-1.30478e-05
-1.26491e-05
-0.000221396
-6.36756e-05
-1.72896e-05
-0.000195241
-0.000127027
-2.27006e-05
-0.000143276
-0.000195184
-2.76491e-05
-7.00679e-05
-0.000236515
-2.9376e-05
-0.000184435
-2.28588e-05
-8.30765e-06
9.41971e-05
-5.32671e-06
-2.50705e-05
0.000155137
-5.53458e-06
-4.33963e-05
0.000167447
-5.30558e-06
-6.16004e-05
0.000165889
-4.8669e-06
-7.94101e-05
0.000160882
-4.46974e-06
-9.6966e-05
0.000154853
-4.12972e-06
-0.000114528
0.000148289
-3.87522e-06
-0.000132414
0.000141248
-3.74913e-06
-0.000150986
0.0001336
-3.80635e-06
-0.000170628
0.000125004
-4.12581e-06
-0.000191663
0.000114811
-4.82899e-06
-0.000214185
0.00010188
-6.10377e-06
-0.00023771
8.43241e-05
-8.22701e-06
-0.00026055
5.91932e-05
-1.15617e-05
-0.000279113
2.23842e-05
-1.68684e-05
-0.000285841
-3.24926e-05
-2.4455e-05
-0.000268905
-0.000109753
-3.42103e-05
-0.000215077
-0.000204259
-4.47529e-05
-0.000121128
-0.00027853
-5.19348e-05
-0.000256607
-4.89564e-05
-9.36117e-06
0.000110175
-6.61664e-06
-2.78864e-05
0.000180677
-7.01413e-06
-4.76526e-05
0.000193931
-6.71776e-06
-6.68803e-05
0.000191219
-6.10278e-06
-8.54087e-05
0.000184917
-5.50588e-06
-0.000103525
0.000177939
-4.96865e-06
-0.000121639
0.000170941
-4.53882e-06
-0.000140233
0.000164114
-4.27103e-06
-0.000159899
0.000157498
-4.23206e-06
-0.000181364
0.00015099
-4.51983e-06
-0.000205493
0.000144234
-5.29369e-06
-0.000233182
0.00013639
-6.82036e-06
-0.000265035
0.000125708
-9.53071e-06
-0.000300645
0.00010887
-1.40672e-05
-0.000337094
8.01115e-05
-2.12787e-05
-0.000367456
3.04925e-05
-3.26234e-05
-0.00037505
-5.33754e-05
-4.87829e-05
-0.000334461
-0.000176299
-6.85484e-05
-0.000218957
-0.000305807
-8.82261e-05
-0.000373197
-0.000102367
-1.11383e-05
0.000129763
-8.44992e-06
-3.19801e-05
0.000210591
-9.07198e-06
-5.33227e-05
0.0002239
-8.62564e-06
-7.34056e-05
0.000219003
-7.70062e-06
-9.22821e-05
0.000210561
-6.76783e-06
-0.000110447
0.000202006
-5.90328e-06
-0.000128462
0.000194134
-5.17802e-06
-0.000146939
0.000187248
-4.65729e-06
-0.000166641
0.000181616
-4.41641e-06
-0.00018859
0.000177501
-4.56218e-06
-0.000214205
0.000175123
-5.27474e-06
-0.000245397
0.000174452
-6.87106e-06
-0.000284546
0.00017475
-9.89318e-06
-0.00033398
0.000173486
-1.51813e-05
-0.000394768
0.00016477
-2.38702e-05
-0.000462399
0.000135503
-3.738e-05
-0.000520207
6.26423e-05
-5.82089e-05
-0.000520544
-9.1938e-05
-8.40248e-05
-0.000390885
-0.000322821
-0.000112645
-0.00060038
-0.000163702
-1.44409e-05
0.000155448
-1.12443e-05
-3.845e-05
0.000246829
-1.22298e-05
-6.13876e-05
0.000258381
-1.15441e-05
-8.19179e-05
0.000249597
-1.0064e-05
-0.000100575
0.000237698
-8.4793e-06
-0.000118123
0.000226537
-6.98399e-06
-0.000135213
0.000216939
-5.71402e-06
-0.000152498
0.000209285
-4.75206e-06
-0.00017079
0.000204065
-4.15711e-06
-0.000191242
0.000201969
-4.01581e-06
-0.000215649
0.00020402
-4.4897e-06
-0.000246847
0.000211521
-5.8717e-06
-0.000289356
0.0002259
-8.64015e-06
-0.000349629
0.000247138
-1.33791e-05
-0.000436008
0.000271303
-2.01539e-05
-0.000552888
0.000279577
-2.71947e-05
-0.000689164
0.000229299
-3.03807e-05
-0.000765062
3.90514e-06
-1.99446e-05
-0.000633441
-0.000446418
-8.02338e-06
-0.00110453
-0.000129296
-1.99643e-05
0.000190902
-1.5489e-05
-4.82651e-05
0.000291166
-1.60357e-05
-7.2961e-05
0.000297744
-1.46671e-05
-9.3941e-05
0.000282687
-1.21094e-05
-0.00011182
0.000265257
-9.68045e-06
-0.000127761
0.000249944
-7.46509e-06
-0.000142695
0.000237443
-5.57084e-06
-0.000157303
0.000227948
-4.05484e-06
-0.000172216
0.000221934
-2.95694e-06
-0.000188271
0.000220348
-2.32344e-06
-0.000207042
0.00022498
-2.18877e-06
-0.00023147
0.00023851
-2.56068e-06
-0.000267823
0.000265493
-3.23995e-06
-0.000327074
0.00030921
-2.82129e-06
-0.000429859
0.000370241
3.84847e-06
-0.000598463
0.000417363
3.08176e-05
-0.000842984
0.00037658
9.72407e-05
-0.00103412
-1.58471e-05
0.000210887
-0.000880921
-0.000891494
0.000291877
-0.00197341
-1.20344e-05
-4.00525e-05
0.000254374
-2.34196e-05
-7.11152e-05
0.000348006
-2.57775e-05
-9.3641e-05
0.000343206
-2.29359e-05
-0.000110094
0.00031772
-1.85807e-05
-0.00012414
0.000293107
-1.38037e-05
-0.000137023
0.000272262
-9.43557e-06
-0.000149212
0.000255369
-5.73672e-06
-0.000160651
0.000242197
-2.80983e-06
-0.000171271
0.000233189
-6.33819e-07
-0.00018092
0.000229182
8.14884e-07
-0.000190297
0.000232654
1.70317e-06
-0.000201138
0.000246797
2.55377e-06
-0.000220231
0.000279498
5.08816e-06
-0.000259859
0.000334032
1.48053e-05
-0.000359643
0.000422324
4.77017e-05
-0.0005653
0.000486471
0.000136548
-0.000927676
0.000426966
0.00031199
-0.00121801
-0.000251517
0.000526
-0.00102608
-0.00161433
0.000530908
-0.00293041
-6.90804e-05
-3.39458e-05
0.000326751
-3.84311e-05
-8.26927e-05
0.000430988
-3.42354e-05
-0.000113767
0.000402874
-2.85937e-05
-0.000135037
0.000358241
-1.92505e-05
-0.000147639
0.000317635
-1.19261e-05
-0.00015521
0.000285426
-5.59282e-06
-0.000159861
0.000260546
-5.26931e-07
-0.000162547
0.000241302
3.58169e-06
-0.000163209
0.000227345
6.50501e-06
-0.000160623
0.000218169
8.4274e-06
-0.000153825
0.000216102
9.75439e-06
-0.000141055
0.000222404
1.16231e-05
-0.000126729
0.000247606
1.75663e-05
-0.000120864
0.000290333
3.78343e-05
-0.000173431
0.000378484
9.64057e-05
-0.00035586
0.000434494
0.000234405
-0.000756103
0.000347087
0.000480122
-0.001121
-0.000563884
0.000677267
-0.000983593
-0.00222076
0.000469026
-0.00359577
-0.000318238
-0.000177472
0.000555067
-5.08449e-05
-0.000184071
0.000495587
-5.79989e-05
-0.000171137
0.000440242
-5.03027e-05
-0.000158611
0.000381981
-3.62662e-05
-0.000140689
0.000320182
-2.04694e-05
-0.000121926
0.000273805
-7.14104e-06
-0.00010421
0.000239728
3.10205e-06
-8.67601e-05
0.000213334
1.0518e-05
-6.89497e-05
0.00019406
1.54746e-05
-4.78333e-05
0.000178953
1.80996e-05
-2.16503e-05
0.000170866
1.90532e-05
1.36808e-05
0.000167595
1.9477e-05
6.10168e-05
0.000177361
2.29086e-05
0.000115288
0.00019667
3.93927e-05
0.000160397
0.000240091
9.32842e-05
0.000122632
0.00025447
0.000217789
-6.70513e-05
0.000121577
0.000415193
-0.000470467
-0.000724474
0.000564006
-0.000637228
-0.00231446
0.000260461
-0.00369267
-0.000540323
-0.000371624
0.00108183
-0.000155134
-0.000266422
0.000492298
-0.000101913
-0.000121893
0.000363792
-6.80796e-05
3.14798e-05
0.000263766
-3.51577e-05
0.000172435
0.000191976
-1.27492e-05
0.000296763
0.000145482
3.99537e-06
0.000402024
0.00011684
1.76271e-05
0.000490826
9.7298e-05
2.72342e-05
0.000566153
8.48563e-05
3.3877e-05
0.000632365
7.5638e-05
3.71022e-05
0.000694532
7.11883e-05
3.75104e-05
0.000759742
6.86022e-05
3.3784e-05
0.000836447
7.04487e-05
3.02067e-05
0.000937315
7.21073e-05
2.36952e-05
0.00106954
6.86265e-05
3.92384e-05
0.00119779
3.46966e-05
9.15237e-05
0.00126742
-9.6526e-05
0.00014847
0.000891349
-0.000630939
0.000282539
0.000194553
-0.0016869
6.92353e-05
-0.00277977
-0.000718348
0.00122765
-0.000145828
0.0018723
-0.000152353
0.00238228
-0.000146182
0.00277419
-0.000128148
0.00307304
-0.000106867
0.00330713
-8.86105e-05
0.00349418
-7.02071e-05
0.00364621
-5.47362e-05
0.00377077
-3.97059e-05
0.0038733
-2.68941e-05
0.00396157
-1.7079e-05
0.00403662
-6.45062e-06
0.00411024
-3.16727e-06
0.00417819
4.16035e-06
0.00423879
8.02803e-06
0.00426239
1.10947e-05
0.00413476
3.11017e-05
0.00351201
-8.18581e-06
0.00191442
-8.93114e-05
-0.000865356
-4.12335e-06
4.38543e-06
-6.04633e-07
-1.29579e-05
9.22913e-06
-3.09735e-07
-2.29686e-05
1.04065e-05
-1.44766e-07
-3.29482e-05
1.03517e-05
-4.02214e-08
-4.25069e-05
9.90929e-06
-1.73209e-08
-5.14341e-05
9.26718e-06
-5.58559e-08
-5.95263e-05
8.43073e-06
-1.4029e-07
-6.65526e-05
7.37183e-06
-2.68161e-07
-7.22458e-05
6.06089e-06
-4.40478e-07
-7.63093e-05
4.46957e-06
-6.59207e-07
-7.84323e-05
2.57548e-06
-9.2469e-07
-7.83086e-05
3.76587e-07
-1.23545e-06
-7.56324e-05
-2.11794e-06
-1.57865e-06
-7.01818e-05
-4.83081e-06
-1.94059e-06
-6.18515e-05
-7.6528e-06
-2.2938e-06
-5.07197e-05
-1.04083e-05
-2.59762e-06
-3.71559e-05
-1.28114e-05
-2.79015e-06
-2.20781e-05
-1.43105e-05
-2.79258e-06
-7.74782e-06
-1.35646e-05
-2.54674e-06
-7.02058e-06
-1.51221e-06
-9.22635e-06
1.38883e-05
-1.39481e-06
-2.53421e-05
2.58347e-05
-1.23642e-06
-4.30794e-05
2.8621e-05
-1.04432e-06
-6.05751e-05
2.829e-05
-8.65648e-07
-7.71459e-05
2.68941e-05
-7.64065e-07
-9.23808e-05
2.49014e-05
-7.21562e-07
-0.000105904
2.23561e-05
-7.27118e-07
-0.000117328
1.92188e-05
-7.81264e-07
-0.000126243
1.54384e-05
-8.88273e-07
-0.000132219
1.09676e-05
-1.05319e-06
-0.000134804
5.76345e-06
-1.27961e-06
-0.000133623
-9.90049e-08
-1.568e-06
-0.000128249
-6.68656e-06
-1.90592e-06
-0.000118426
-1.37349e-05
-2.27452e-06
-0.000104067
-2.09824e-05
-2.64239e-06
-8.53623e-05
-2.79932e-05
-2.95813e-06
-6.29219e-05
-3.40694e-05
-3.14108e-06
-3.816e-05
-3.78587e-05
-3.09459e-06
-1.43889e-05
-3.6139e-05
-2.75275e-06
-2.03626e-05
-1.44246e-06
-1.10029e-05
2.52215e-05
-1.81563e-06
-2.97679e-05
4.51885e-05
-1.74416e-06
-5.02574e-05
4.96868e-05
-1.54433e-06
-7.03813e-05
4.89471e-05
-1.3284e-06
-8.93864e-05
4.6396e-05
-1.18446e-06
-0.000106819
4.28102e-05
-1.09714e-06
-0.000122266
3.82779e-05
-1.05716e-06
-0.000135306
3.27521e-05
-1.06774e-06
-0.000145494
2.61617e-05
-1.13627e-06
-0.000152368
1.84386e-05
-1.27071e-06
-0.000155462
9.54227e-06
-1.47722e-06
-0.000154266
-5.02578e-07
-1.75969e-06
-0.000148327
-1.17054e-05
-2.1065e-06
-0.000137306
-2.37016e-05
-2.50189e-06
-0.000121035
-3.60642e-05
-2.9109e-06
-9.96468e-05
-4.80775e-05
-3.27391e-06
-7.37631e-05
-5.85644e-05
-3.49432e-06
-4.49636e-05
-6.52211e-05
-3.4551e-06
-1.70884e-05
-6.25884e-05
-3.07875e-06
-3.62078e-05
-1.59373e-06
-1.17333e-05
3.73636e-05
-2.18966e-06
-3.17789e-05
6.59454e-05
-2.20632e-06
-5.36317e-05
7.22388e-05
-2.00599e-06
-7.50967e-05
7.10614e-05
-1.76408e-06
-9.54097e-05
6.73141e-05
-1.58963e-06
-0.000114121
6.20987e-05
-1.4698e-06
-0.000130823
5.55485e-05
-1.39762e-06
-0.000145093
4.76053e-05
-1.37926e-06
-0.000156478
3.81705e-05
-1.42539e-06
-0.000164487
2.71394e-05
-1.54781e-06
-0.000168585
1.44324e-05
-1.75776e-06
-0.000168254
9.95295e-08
-2.06813e-06
-0.000162817
-1.60729e-05
-2.46131e-06
-0.000151784
-3.34953e-05
-2.92854e-06
-0.000134785
-5.16487e-05
-3.42976e-06
-0.000111769
-6.95163e-05
-3.89507e-06
-8.32752e-05
-8.53517e-05
-4.20681e-06
-5.10218e-05
-9.56829e-05
-4.21479e-06
-1.94381e-05
-9.23745e-05
-3.81304e-06
-5.40837e-05
-2.06334e-06
-1.23408e-05
5.02149e-05
-2.55751e-06
-3.35579e-05
8.80261e-05
-2.66162e-06
-5.67058e-05
9.62391e-05
-2.4623e-06
-7.94868e-05
9.46369e-05
-2.1995e-06
-0.000101135
8.97038e-05
-2.0028e-06
-0.000121223
8.28901e-05
-1.86186e-06
-0.000139361
7.43767e-05
-1.77223e-06
-0.000155146
6.40897e-05
-1.74346e-06
-0.000168124
5.18898e-05
-1.79033e-06
-0.00017778
3.76119e-05
-1.92947e-06
-0.000183519
2.11005e-05
-2.17643e-06
-0.000184651
2.30535e-06
-2.54002e-06
-0.0001804
-1.90464e-05
-3.05106e-06
-0.000169942
-4.24435e-05
-3.66212e-06
-0.000152575
-6.72582e-05
-4.34155e-06
-0.000127901
-9.21909e-05
-5.00529e-06
-9.62292e-05
-0.000114813
-5.49956e-06
-5.94185e-05
-0.000130128
-5.61723e-06
-2.27666e-05
-0.000126621
-5.19241e-06
-7.47666e-05
-2.99813e-06
-1.30801e-05
6.39307e-05
-2.97007e-06
-3.57084e-05
0.000111704
-3.16951e-06
-6.04244e-05
0.000121993
-2.97157e-06
-8.48018e-05
0.000119984
-2.68786e-06
-0.000108077
0.000113884
-2.47049e-06
-0.000129852
0.000105523
-2.31221e-06
-0.000149779
9.51378e-05
-2.21184e-06
-0.000167487
8.26375e-05
-2.1832e-06
-0.000182543
6.78295e-05
-2.24641e-06
-0.00019442
5.04595e-05
-2.42499e-06
-0.000202458
3.02464e-05
-2.74208e-06
-0.00020583
6.96829e-06
-3.21483e-06
-0.000203529
-1.97881e-05
-3.9034e-06
-0.000194327
-4.97652e-05
-4.74839e-06
-0.000177005
-8.23392e-05
-5.72533e-06
-0.000150573
-0.000116007
-6.73245e-06
-0.000114863
-0.000147558
-7.56244e-06
-7.17637e-05
-0.00016998
-7.90954e-06
-2.78247e-05
-0.000167207
-7.48712e-06
-9.96939e-05
-4.59608e-06
-1.40069e-05
7.87288e-05
-3.47169e-06
-3.83682e-05
0.000137343
-3.786e-06
-6.49905e-05
0.000149881
-3.5884e-06
-9.12882e-05
0.000147465
-3.27758e-06
-0.000116503
0.0001402
-3.03292e-06
-0.000140286
0.000130344
-2.85161e-06
-0.000162351
0.000118205
-2.73728e-06
-0.000182388
0.000103677
-2.70969e-06
-0.000200021
8.6509e-05
-2.79641e-06
-0.000214747
6.63334e-05
-3.03126e-06
-0.00022587
4.2689e-05
-3.45248e-06
-0.000232423
1.50964e-05
-4.10577e-06
-0.000233162
-1.71197e-05
-5.02979e-06
-0.000226331
-5.42388e-05
-6.23185e-06
-0.000209956
-9.58302e-05
-7.68487e-06
-0.000182082
-0.000140416
-9.27083e-06
-0.000141586
-0.000184007
-1.07084e-05
-9.00355e-05
-0.000216975
-1.15279e-05
-3.56781e-05
-0.000216772
-1.11952e-05
-0.000131233
-7.26037e-06
-1.51405e-05
9.48581e-05
-4.10278e-06
-4.15855e-05
0.000165354
-4.56277e-06
-7.04604e-05
0.000180306
-4.36149e-06
-9.89851e-05
0.000177435
-4.00966e-06
-0.000126415
0.00016897
-3.72138e-06
-0.000152473
0.000157654
-3.50068e-06
-0.000176964
0.00014389
-3.35821e-06
-0.000199686
0.000127578
-3.32187e-06
-0.000220367
0.000108411
-3.42939e-06
-0.000238593
8.58944e-05
-3.72873e-06
-0.000253703
5.9341e-05
-4.27869e-06
-0.000264651
2.79114e-05
-5.15064e-06
-0.000269976
-9.45415e-06
-6.41674e-06
-0.000267313
-5.39773e-05
-8.15476e-06
-0.000253667
-0.000105793
-1.03505e-05
-0.000225569
-0.00016394
-1.28963e-05
-0.00018011
-0.000223931
-1.54246e-05
-0.000117671
-0.000272975
-1.72138e-05
-4.84708e-05
-0.000279031
-1.72089e-05
-0.0001737
-1.17891e-05
-1.65133e-05
0.000112617
-4.9117e-06
-4.54272e-05
0.000196203
-5.56068e-06
-7.69016e-05
0.000213689
-5.34643e-06
-0.000107925
0.00021023
-4.92857e-06
-0.00013778
0.000200452
-4.5669e-06
-0.000166289
0.000187663
-4.2758e-06
-0.000193389
0.0001724
-4.07612e-06
-0.00021904
0.000154595
-4.00647e-06
-0.00024315
0.000133912
-4.11767e-06
-0.00026549
0.000109741
-4.47622e-06
-0.000285555
8.1149e-05
-5.16924e-06
-0.00030235
4.68466e-05
-6.31077e-06
-0.000314395
5.33893e-06
-8.04203e-06
-0.000318658
-4.62031e-05
-1.053e-05
-0.000310942
-0.000108919
-1.384e-05
-0.000285585
-0.000183369
-1.79417e-05
-0.000236547
-0.000265494
-2.24034e-05
-0.000161263
-0.000339195
-2.61593e-05
-7.10058e-05
-0.000359201
-2.71285e-05
-0.000236104
-1.98371e-05
-1.81952e-05
0.000132397
-5.96578e-06
-5.00268e-05
0.000230452
-6.86206e-06
-8.44557e-05
0.000250487
-6.61617e-06
-0.000118202
0.000246158
-6.08996e-06
-0.000150598
0.000234827
-5.60477e-06
-0.000181601
0.000220458
-5.19084e-06
-0.000211332
0.000203772
-4.88333e-06
-0.000239972
0.000184783
-4.73434e-06
-0.000267703
0.000163177
-4.81023e-06
-0.000294617
0.000138284
-5.20004e-06
-0.000320568
0.000108973
-6.02729e-06
-0.000344933
7.35155e-05
-7.45625e-06
-0.000366125
2.94925e-05
-9.68802e-06
-0.000381364
-2.68658e-05
-1.31879e-05
-0.000385017
-9.97775e-05
-1.81379e-05
-0.000368649
-0.000192348
-2.468e-05
-0.000321279
-0.000303082
-3.24826e-05
-0.000234256
-0.000413741
-4.01266e-05
-0.00011494
-0.000464027
-4.38657e-05
-0.000338911
-3.49918e-05
-2.03249e-05
0.000154761
-7.36628e-06
-5.56383e-05
0.000268817
-8.5864e-06
-9.33972e-05
0.000291214
-8.27357e-06
-0.000130028
0.00028549
-7.56879e-06
-0.000164953
0.00027216
-6.87858e-06
-0.000198315
0.000255948
-6.25729e-06
-0.000230466
0.000237808
-5.75994e-06
-0.000261876
0.000217898
-5.45452e-06
-0.00029309
0.000196008
-5.42387e-06
-0.000324673
0.000171523
-5.78126e-06
-0.000357091
0.000143256
-6.69379e-06
-0.000390446
0.000109179
-8.41229e-06
-0.000423893
6.60284e-05
-1.1316e-05
-0.000455515
9.12609e-06
-1.59313e-05
-0.000479052
-7.01538e-05
-2.29548e-05
-0.000483687
-0.00017918
-3.2988e-05
-0.000451895
-0.00032293
-4.61555e-05
-0.000363707
-0.000485719
-6.0963e-05
-0.000208743
-0.000599125
-7.18005e-05
-0.00053198
-6.46309e-05
-2.31655e-05
0.000180583
-9.27298e-06
-6.27201e-05
0.000312272
-1.09145e-05
-0.000104217
0.000336464
-1.04708e-05
-0.000143805
0.000328448
-9.47139e-06
-0.000181079
0.000312374
-8.44491e-06
-0.000216433
0.000293816
-7.48311e-06
-0.000250499
0.000274004
-6.66852e-06
-0.000284077
0.000253292
-6.0862e-06
-0.000318145
0.000231676
-5.83255e-06
-0.000353883
0.000208781
-6.03913e-06
-0.000392672
0.00018366
-6.90922e-06
-0.00043594
0.000154398
-8.77203e-06
-0.0004847
0.0001174
-1.21415e-05
-0.000538319
6.64092e-05
-1.77312e-05
-0.00059394
-8.8198e-06
-2.69924e-05
-0.00064044
-0.000124198
-4.11044e-05
-0.000653743
-0.000297067
-6.13423e-05
-0.000591825
-0.000529419
-8.67654e-05
-0.000396228
-0.000771888
-0.00011106
-0.000914587
-0.000115987
-2.72087e-05
0.000211287
-1.1945e-05
-7.20644e-05
0.000362171
-1.41156e-05
-0.000117743
0.000386935
-1.34178e-05
-0.000160235
0.000375171
-1.19314e-05
-0.000199449
0.000355185
-1.03659e-05
-0.000236135
0.000333463
-8.86411e-06
-0.000271254
0.000311489
-7.54307e-06
-0.000305932
0.000289817
-6.50444e-06
-0.000341558
0.000268736
-5.84996e-06
-0.000379956
0.000248326
-5.70948e-06
-0.000423589
0.000228304
-6.28622e-06
-0.000475743
0.000207609
-7.92795e-06
-0.000540544
0.000183536
-1.12284e-05
-0.000622278
0.000150088
-1.71257e-05
-0.000723678
9.56628e-05
-2.69533e-05
-0.000840781
-1.45424e-06
-4.30207e-05
-0.000941523
-0.000188282
-6.62526e-05
-0.000938255
-0.000521899
-9.48132e-05
-0.000682797
-0.00101529
-0.0001247
-0.00160248
-0.000158609
-3.36334e-05
0.000249545
-1.58687e-05
-8.53086e-05
0.000420408
-1.87914e-05
-0.000135361
0.000443122
-1.76789e-05
-0.000180242
0.00042537
-1.53827e-05
-0.000220647
0.000399995
-1.28838e-05
-0.000257759
0.000374048
-1.04578e-05
-0.000292786
0.000349099
-8.29768e-06
-0.000327069
0.000325874
-6.52608e-06
-0.000362312
0.000305048
-5.22622e-06
-0.000400856
0.000287338
-4.48413e-06
-0.000446185
0.000273581
-4.43707e-06
-0.000503636
0.000264519
-5.332e-06
-0.00058141
0.000260245
-7.57417e-06
-0.000690848
0.000257783
-1.16368e-05
-0.000844271
0.000246263
-1.73312e-05
-0.00104058
0.000189696
-2.20351e-05
-0.0012354
-3.84792e-06
-1.99981e-05
-0.00127223
-0.000501438
-3.5718e-06
-0.000910958
-0.00138853
3.94171e-06
-0.00253516
-0.000107576
-4.18925e-05
0.000297507
-2.15582e-05
-0.000102469
0.000489697
-2.47476e-05
-0.000158191
0.0005069
-2.27231e-05
-0.000206171
0.000480251
-1.90111e-05
-0.000247122
0.000446504
-1.52378e-05
-0.00028311
0.000414207
-1.16366e-05
-0.000316035
0.000384862
-8.40796e-06
-0.000347543
0.000358986
-5.65947e-06
-0.000379332
0.000337326
-3.44543e-06
-0.000413614
0.000321064
-1.76727e-06
-0.000454096
0.000312448
-5.74785e-07
-0.000507176
0.000314677
3.61624e-07
-0.000584263
0.000332472
1.6204e-06
-0.000702269
0.000367772
5.19585e-06
-0.000881038
0.000411359
1.75207e-05
-0.00111581
0.000401379
5.39047e-05
-0.00135545
0.000195996
0.000137037
-0.00138286
-0.000529845
0.000266711
-0.000918549
-0.00185777
0.000296806
-0.0034339
-3.18363e-05
-7.41599e-05
0.000379167
-3.09198e-05
-0.000141059
0.000567141
-3.6322e-05
-0.000194407
0.000570072
-3.27606e-05
-0.000237166
0.000531379
-2.69495e-05
-0.000274283
0.000490308
-2.04911e-05
-0.000307445
0.00045225
-1.43158e-05
-0.000337655
0.000418152
-8.81584e-06
-0.000365546
0.00038824
-4.17245e-06
-0.000392079
0.000363607
-3.82629e-07
-0.000418517
0.000345683
2.63493e-06
-0.000447643
0.000337965
5.31221e-06
-0.000484191
0.000345186
8.59268e-06
-0.000538938
0.000377234
1.5072e-05
-0.000625136
0.000437174
3.16014e-05
-0.00076609
0.000524304
7.57102e-05
-0.000948615
0.000538261
0.00018219
-0.00115987
0.000336548
0.000382692
-0.00120348
-0.000559871
0.000599639
-0.000765936
-0.00225199
0.000487575
-0.00413462
-0.000134303
-5.50587e-05
0.000442837
-4.70428e-05
-0.000153738
0.000680788
-4.92034e-05
-0.000228602
0.00065852
-4.21767e-05
-0.000282459
0.000597187
-3.12014e-05
-0.000320507
0.000537843
-2.14131e-05
-0.00034768
0.000486188
-1.23575e-05
-0.000367749
0.000442181
-4.48779e-06
-0.000382542
0.000404633
1.9805e-06
-0.00039335
0.000373834
7.08599e-06
-0.000400095
0.000349555
1.12997e-05
-0.000403177
0.00033552
1.52819e-05
-0.00040177
0.000334607
2.07955e-05
-0.00040053
0.000360932
3.26291e-05
-0.000399858
0.000412248
6.20881e-05
-0.000426167
0.000511963
0.000135056
-0.000484396
0.000540574
0.000290322
-0.000606402
0.000387616
0.00055106
-0.000702024
-0.000521158
0.000734175
-0.000425201
-0.00245373
0.000393952
-0.00452823
-0.000349829
-0.000198936
0.000649779
-5.88505e-05
-0.000251886
0.000746614
-7.08757e-05
-0.000296519
0.000716815
-6.39655e-05
-0.000332432
0.0006456
-4.87658e-05
-0.0003449
0.000561226
-3.13841e-05
-0.00034137
0.000491175
-1.56583e-05
-0.00032795
0.000434263
-2.39969e-06
-0.000306686
0.000386163
7.72437e-06
-0.000280826
0.000347982
1.54657e-05
-0.000248994
0.000314839
2.09844e-05
-0.000212698
0.000293091
2.51863e-05
-0.000165448
0.000277224
2.96091e-05
-0.000105259
0.000284424
3.92274e-05
-2.4659e-05
0.000305439
6.5602e-05
9.39904e-05
0.000359094
0.000127504
0.000211385
0.000378656
0.000262312
0.000362658
0.000205728
0.000445809
0.000307074
-0.000482936
0.000581368
0.000274948
-0.0023477
0.000186554
-0.00430783
-0.000485774
-0.000661915
0.0012955
-0.000138937
-0.000623488
0.000721172
-0.000114897
-0.000490553
0.000600802
-8.5002e-05
-0.000306693
0.000482381
-5.5798e-05
-0.00011506
0.000390055
-3.3212e-05
7.13363e-05
0.000322272
-1.34975e-05
0.000245766
0.000274073
3.38757e-06
0.000406628
0.000236237
1.62982e-05
0.000554293
0.000207488
2.6706e-05
0.000689332
0.000182984
3.39179e-05
0.000815811
0.000166094
3.80275e-05
0.000937151
0.000150985
3.86839e-05
0.00106628
0.000145744
3.97535e-05
0.00121228
0.000143389
3.9744e-05
0.00141858
0.000135679
5.63569e-05
0.00166526
0.000110223
0.000113276
0.00193448
-5.57865e-05
0.000140763
0.00196931
-0.00046796
0.000232734
0.00135403
-0.00169748
3.43005e-05
-0.00311263
-0.000559519
0.00127256
-0.000122891
0.00197944
-0.000138057
0.00257216
-0.000138107
0.00305509
-0.00012869
0.00345279
-0.000114515
0.003787
-0.000100549
0.00407571
-8.48407e-05
0.00432674
-6.95359e-05
0.00454953
-5.50094e-05
0.00474517
-3.95428e-05
0.00492224
-2.80553e-05
0.00508186
-1.50924e-05
0.00523043
-5.99075e-06
0.00537839
-4.11341e-07
0.00550958
1.25245e-05
0.00562273
8.16203e-06
0.00556654
3.15025e-05
0.00510525
-1.48503e-05
0.00339844
-7.99832e-05
-0.000579546
-4.6157e-06
4.72672e-06
-7.15652e-07
-1.45012e-05
1.02659e-05
-6.90131e-07
-2.56711e-05
1.16169e-05
-5.91755e-07
-3.67404e-05
1.15322e-05
-5.03036e-07
-4.72811e-05
1.099e-05
-4.66702e-07
-5.70718e-05
1.02132e-05
-4.78283e-07
-6.58936e-05
9.21374e-06
-5.32252e-07