/*--------------------------------*- C++ -*----------------------------------*\
  =========                 |
  \\      /  F ield         | OpenFOAM: The Open Source CFD Toolbox
   \\    /   O peration     | Website:  https://openfoam.org
    \\  /    A nd           | Version:  10
     \\/     M anipulation  |
\*---------------------------------------------------------------------------*/
FoamFile
{
    format      ascii;
    class       volVectorField;
    location    "8.35";
    object      U;
}
// * * * * * * * * * * * * * * * * * * * * * * * * * * * * * * * * * * * * * //

dimensions      [0 1 -1 0 0 0 0];

internalField   nonuniform List<vector> 
400
(
(-0.00015492 0.000137486 0)
(-0.00115608 0.000430406 0)
(-0.00284787 0.000537046 0)
(-0.0045823 0.000571863 0)
(-0.00637492 0.000589668 0)
(-0.00818691 0.000607828 0)
(-0.0100034 0.000625537 0)
(-0.0118011 0.000635461 0)
(-0.0135349 0.000627353 0)
(-0.0151337 0.000588301 0)
(-0.016495 0.00050306 0)
(-0.0174804 0.000355752 0)
(-0.0179201 0.000134226 0)
(-0.017621 -0.0001749 0)
(-0.0164009 -0.000556321 0)
(-0.0141463 -0.000966743 0)
(-0.0109056 -0.00131701 0)
(-0.00703975 -0.00147436 0)
(-0.00284122 -0.00127727 0)
(-0.000330309 -0.000463333 0)
(-0.000497142 0.00117775 0)
(-0.00259272 0.00245119 0)
(-0.00580302 0.00292538 0)
(-0.00909021 0.00307745 0)
(-0.0124487 0.0031222 0)
(-0.0157908 0.0031298 0)
(-0.0190653 0.0031012 0)
(-0.0222127 0.00301047 0)
(-0.0251446 0.00281923 0)
(-0.0277358 0.00247997 0)
(-0.0298181 0.00193923 0)
(-0.0311762 0.00114273 0)
(-0.0315663 4.56487e-05 0)
(-0.0307132 -0.00135586 0)
(-0.0283602 -0.00299253 0)
(-0.0243664 -0.00468268 0)
(-0.0188339 -0.00608398 0)
(-0.0123136 -0.00668834 0)
(-0.00528735 -0.00588631 0)
(-0.000833401 -0.00266775 0)
(-0.000648872 0.0030447 0)
(-0.0032563 0.00574508 0)
(-0.0071729 0.00674146 0)
(-0.0111537 0.00704297 0)
(-0.0151948 0.00708954 0)
(-0.019191 0.00702537 0)
(-0.0230818 0.00685787 0)
(-0.0268006 0.00654045 0)
(-0.0302509 0.0060009 0)
(-0.0332979 0.00514891 0)
(-0.0357607 0.003883 0)
(-0.0374084 0.00210284 0)
(-0.0379511 -0.000269359 0)
(-0.0370507 -0.00324272 0)
(-0.0343743 -0.00668341 0)
(-0.0296834 -0.0102315 0)
(-0.0230198 -0.0131929 0)
(-0.0150228 -0.0144833 0)
(-0.00630297 -0.0128128 0)
(-0.000903389 -0.00611761 0)
(-0.000698438 0.00504119 0)
(-0.00352042 0.0092731 0)
(-0.0077513 0.0108051 0)
(-0.0120357 0.0112438 0)
(-0.0163841 0.0112809 0)
(-0.0206936 0.0111404 0)
(-0.0249135 0.0108382 0)
(-0.0289899 0.0103088 0)
(-0.0328413 0.00944755 0)
(-0.0363464 0.00811902 0)
(-0.0393289 0.00616462 0)
(-0.0415448 0.00342008 0)
(-0.0426759 -0.000249015 0)
(-0.0422911 -0.00488857 0)
(-0.0398859 -0.0103652 0)
(-0.0349997 -0.0161548 0)
(-0.0274435 -0.021144 0)
(-0.0178751 -0.0234431 0)
(-0.00708262 -0.020719 0)
(-0.000742211 -0.00967232 0)
(-0.000701997 0.00712442 0)
(-0.0036029 0.0129758 0)
(-0.00797772 0.0150713 0)
(-0.012411 0.0156594 0)
(-0.0169307 0.0157046 0)
(-0.0214464 0.015519 0)
(-0.02593 0.0151308 0)
(-0.0303553 0.0144595 0)
(-0.034673 0.0133689 0)
(-0.0387948 0.0116755 0)
(-0.0425697 0.00914975 0)
(-0.045754 0.00552999 0)
(-0.0479723 0.000566445 0)
(-0.0486958 -0.00589029 0)
(-0.0471886 -0.0137941 0)
(-0.0425822 -0.0225234 0)
(-0.0341992 -0.0304721 0)
(-0.0224349 -0.0345458 0)
(-0.008222 -0.0304932 0)
(-0.000367496 -0.0135019 0)
(-0.000687086 0.00922301 0)
(-0.00361094 0.0167557 0)
(-0.00806175 0.0194448 0)
(-0.0125866 0.0202057 0)
(-0.0172302 0.0202943 0)
(-0.021921 0.0201213 0)
(-0.0266625 0.0197356 0)
(-0.0314691 0.019048 0)
(-0.0363412 0.017896 0)
(-0.0412479 0.016047 0)
(-0.0460958 0.0131896 0)
(-0.0506761 0.00893264 0)
(-0.0546002 0.00284103 0)
(-0.0572514 -0.00548352 0)
(-0.0576277 -0.0162408 0)
(-0.0542845 -0.028901 0)
(-0.0455773 -0.0414421 0)
(-0.0307917 -0.049046 0)
(-0.0106154 -0.0434233 0)
(0.000247903 -0.0177392 0)
(-0.000662964 0.0113046 0)
(-0.00358456 0.0205676 0)
(-0.00808057 0.0238812 0)
(-0.012667 0.0248421 0)
(-0.0174038 0.0250167 0)
(-0.0222418 0.0249279 0)
(-0.0272227 0.0246567 0)
(-0.0324139 0.0241184 0)
(-0.0378855 0.0231358 0)
(-0.0436965 0.0214362 0)
(-0.0498607 0.0186249 0)
(-0.0562811 0.0141557 0)
(-0.0626642 0.0073253 0)
(-0.0684529 -0.00265044 0)
(-0.0724814 -0.0163792 0)
(-0.0725925 -0.0340699 0)
(-0.0653218 -0.0538855 0)
(-0.0468143 -0.0689309 0)
(-0.0167871 -0.0621583 0)
(0.000790084 -0.0232952 0)
(-0.000631443 0.013353 0)
(-0.00353452 0.0243903 0)
(-0.00805351 0.0283562 0)
(-0.0126695 0.0295392 0)
(-0.0174559 0.0298375 0)
(-0.0223853 0.0299027 0)
(-0.0275414 0.0298645 0)
(-0.0330544 0.0296619 0)
(-0.0390849 0.0291297 0)
(-0.0458197 0.0279851 0)
(-0.0534526 0.0257793 0)
(-0.0621357 0.0218339 0)
(-0.0718816 0.0151826 0)
(-0.0824058 0.00455785 0)
(-0.0929327 -0.0115915 0)
(-0.100529 -0.035122 0)
(-0.0979358 -0.0665422 0)
(-0.0750668 -0.096688 0)
(-0.0322214 -0.0916635 0)
(-0.000351505 -0.0331812 0)
(-0.000593666 0.0153549 0)
(-0.00346633 0.0282065 0)
(-0.00798685 0.0328422 0)
(-0.0125897 0.0342532 0)
(-0.0173584 0.0346943 0)
(-0.0222838 0.0349653 0)
(-0.0274895 0.035264 0)
(-0.0331694 0.0355802 0)
(-0.0395847 0.0357994 0)
(-0.047082 0.035688 0)
(-0.0561063 0.0348306 0)
(-0.0672055 0.0325427 0)
(-0.0810415 0.0277697 0)
(-0.0983334 0.0188283 0)
(-0.118909 0.00242264 0)
(-0.138195 -0.0276665 0)
(-0.142212 -0.0777649 0)
(-0.1145 -0.134274 0)
(-0.0634442 -0.13774 0)
(-0.00741738 -0.0544496 0)
(-0.000553859 0.0173013 0)
(-0.00339399 0.0320025 0)
(-0.00789893 0.0373064 0)
(-0.012436 0.0389228 0)
(-0.0170957 0.0394918 0)
(-0.0218795 0.039982 0)
(-0.0269416 0.0406808 0)
(-0.0325292 0.0416594 0)
(-0.0389931 0.0429046 0)
(-0.0468365 0.0443173 0)
(-0.056786 0.045665 0)
(-0.0698961 0.0465101 0)
(-0.0877224 0.0460592 0)
(-0.11236 0.0422796 0)
(-0.14419 0.0284205 0)
(-0.174344 -0.0104248 0)
(-0.181484 -0.0890238 0)
(-0.153161 -0.179229 0)
(-0.107516 -0.198592 0)
(-0.0249099 -0.0992591 0)
(-0.000522114 0.0191974 0)
(-0.00334929 0.0357755 0)
(-0.00783632 0.0417111 0)
(-0.0122518 0.0434667 0)
(-0.0166935 0.0440972 0)
(-0.0211626 0.0447595 0)
(-0.0258257 0.0458461 0)
(-0.0309553 0.0475353 0)
(-0.0369487 0.049965 0)
(-0.0444048 0.0532675 0)
(-0.0542469 0.0575784 0)
(-0.0678904 0.0630049 0)
(-0.0874695 0.069201 0)
(-0.11584 0.0729855 0)
(-0.152156 0.0613758 0)
(-0.1843 0.00971357 0)
(-0.189988 -0.0985087 0)
(-0.16903 -0.218643 0)
(-0.138155 -0.267427 0)
(-0.0446688 -0.184447 0)
(-0.000519819 0.0210814 0)
(-0.00339693 0.0395691 0)
(-0.00789321 0.0460663 0)
(-0.0121346 0.0478424 0)
(-0.0162417 0.0483986 0)
(-0.0202045 0.0490995 0)
(-0.0241815 0.0504512 0)
(-0.0284255 0.052747 0)
(-0.033301 0.0563023 0)
(-0.0393616 0.0615413 0)
(-0.0474728 0.0690738 0)
(-0.058928 0.0796148 0)
(-0.075355 0.092853 0)
(-0.0988274 0.103043 0)
(-0.127152 0.0909364 0)
(-0.150111 0.0267789 0)
(-0.153774 -0.099047 0)
(-0.143782 -0.2408 0)
(-0.131598 -0.331356 0)
(-0.048986 -0.294133 0)
(-0.000577748 0.0230048 0)
(-0.0036196 0.0433498 0)
(-0.00819971 0.0501975 0)
(-0.0122456 0.0517795 0)
(-0.0159207 0.0520798 0)
(-0.0191921 0.0526379 0)
(-0.0221995 0.0540322 0)
(-0.0251312 0.0566459 0)
(-0.0282215 0.0609279 0)
(-0.0318025 0.067515 0)
(-0.0363577 0.0773261 0)
(-0.0424825 0.0912956 0)
(-0.0505856 0.108712 0)
(-0.0614922 0.121538 0)
(-0.0739882 0.108172 0)
(-0.0827851 0.0377839 0)
(-0.0858046 -0.0915268 0)
(-0.085899 -0.240861 0)
(-0.0995309 -0.363987 0)
(-0.037681 -0.378725 0)
(-0.00079889 0.025285 0)
(-0.00429515 0.0477305 0)
(-0.00906616 0.0548582 0)
(-0.012815 0.0560406 0)
(-0.0159078 0.0557199 0)
(-0.0183364 0.0556985 0)
(-0.0201916 0.0566491 0)
(-0.0215543 0.0590079 0)
(-0.0224889 0.0632664 0)
(-0.0230252 0.0700989 0)
(-0.0231736 0.0804455 0)
(-0.0226693 0.095038 0)
(-0.0209826 0.112874 0)
(-0.0176828 0.125347 0)
(-0.0143852 0.112217 0)
(-0.0101412 0.0423112 0)
(-0.016364 -0.0802325 0)
(-0.027078 -0.221383 0)
(-0.0674842 -0.366796 0)
(-0.0230479 -0.434456 0)
(-0.00114565 0.0280853 0)
(-0.00512272 0.0513678 0)
(-0.0104071 0.0577686 0)
(-0.0141087 0.0578434 0)
(-0.0167877 0.0568128 0)
(-0.0183346 0.0563271 0)
(-0.0189046 0.0568922 0)
(-0.0185412 0.058811 0)
(-0.0171786 0.0624909 0)
(-0.0145762 0.0684899 0)
(-0.0104078 0.0775547 0)
(-0.00376337 0.0899588 0)
(0.00617588 0.104868 0)
(0.021016 0.114614 0)
(0.0349456 0.102815 0)
(0.0479183 0.0413939 0)
(0.0371727 -0.0662342 0)
(0.0200277 -0.188976 0)
(-0.043315 -0.352859 0)
(-0.0103573 -0.472283 0)
(-0.00322675 0.0304307 0)
(-0.00956321 0.0586777 0)
(-0.0141714 0.0649752 0)
(-0.0168143 0.0644383 0)
(-0.0181177 0.0616812 0)
(-0.0184357 0.0593865 0)
(-0.0177689 0.0581812 0)
(-0.0159684 0.0583697 0)
(-0.0127625 0.0602427 0)
(-0.00767552 0.0641365 0)
(-0.000297348 0.0704851 0)
(0.0107189 0.0792661 0)
(0.0256241 0.0895741 0)
(0.0461597 0.0954837 0)
(0.0648708 0.0858032 0)
(0.0829648 0.0393371 0)
(0.0700904 -0.0461234 0)
(0.0522268 -0.147182 0)
(-0.0258913 -0.329345 0)
(0.00286215 -0.494299 0)
(-0.000975597 0.0439267 0)
(-0.00779792 0.0602826 0)
(-0.0174284 0.0623944 0)
(-0.0201274 0.058416 0)
(-0.0218225 0.0553331 0)
(-0.0213923 0.0533016 0)
(-0.0195655 0.0522443 0)
(-0.0162265 0.0520673 0)
(-0.011179 0.0529105 0)
(-0.00393227 0.0549092 0)
(0.0059631 0.0584593 0)
(0.0197427 0.0634393 0)
(0.0369076 0.0689489 0)
(0.0599266 0.0712288 0)
(0.0791412 0.0636113 0)
(0.100178 0.0325307 0)
(0.0853707 -0.0286216 0)
(0.0698669 -0.106831 0)
(-0.00821402 -0.304569 0)
(0.022133 -0.50353 0)
(-0.0125546 0.0322666 0)
(-0.0233717 0.0802896 0)
(-0.0215323 0.0801876 0)
(-0.0261152 0.0751896 0)
(-0.0262936 0.0677944 0)
(-0.0246616 0.0616884 0)
(-0.0209549 0.0568049 0)
(-0.0153682 0.0530666 0)
(-0.00795305 0.0504826 0)
(0.00171524 0.0488584 0)
(0.0136134 0.0484842 0)
(0.0287857 0.0489533 0)
(0.0458734 0.0505811 0)
(0.0682624 0.0505262 0)
(0.0841218 0.0470403 0)
(0.106617 0.0312595 0)
(0.0952123 -0.00535919 0)
(0.102933 -0.0665828 0)
(0.0404409 -0.275148 0)
(0.0581265 -0.490845 0)
(-0.0776271 0.095954 0)
(-0.0632614 0.0588173 0)
(-0.0653821 0.0599453 0)
(-0.0430317 0.053305 0)
(-0.0253929 0.0463442 0)
(-0.00490263 0.0411825 0)
(0.0144405 0.0374219 0)
(0.0341464 0.0342294 0)
(0.0524333 0.0319213 0)
(0.0723023 0.0298201 0)
(0.0896444 0.0286602 0)
(0.111786 0.0276447 0)
(0.127503 0.0271106 0)
(0.156756 0.0263236 0)
(0.166953 0.0212667 0)
(0.20332 0.0125227 0)
(0.192912 -0.0209728 0)
(0.22416 -0.0746975 0)
(0.154752 -0.252141 0)
(0.12515 -0.433808 0)
(0.11941 0.140782 0)
(0.152051 0.0861067 0)
(0.228505 0.0635234 0)
(0.283962 0.0480607 0)
(0.325366 0.0374233 0)
(0.363667 0.0296534 0)
(0.392353 0.0242179 0)
(0.423567 0.0201828 0)
(0.44348 0.0172645 0)
(0.47206 0.0149787 0)
(0.48484 0.0132759 0)
(0.514289 0.011975 0)
(0.519745 0.0108608 0)
(0.552236 0.00971701 0)
(0.547386 0.00772782 0)
(0.579883 0.00334574 0)
(0.548809 -0.00586203 0)
(0.55437 -0.0272515 0)
(0.420479 -0.0733149 0)
(0.275364 -0.152135 0)
)
;

boundaryField
{
    movingWall
    {
        type            fixedValue;
        value           uniform (1 0 0);
    }
    fixedWalls
    {
        type            noSlip;
    }
    frontAndBack
    {
        type            empty;
    }
}


// ************************************************************************* //
