/*--------------------------------*- C++ -*----------------------------------*\
  =========                 |
  \\      /  F ield         | OpenFOAM: The Open Source CFD Toolbox
   \\    /   O peration     | Website:  https://openfoam.org
    \\  /    A nd           | Version:  10
     \\/     M anipulation  |
\*---------------------------------------------------------------------------*/
FoamFile
{
    format      ascii;
    class       surfaceScalarField;
    location    "2.575";
    object      phi;
}
// * * * * * * * * * * * * * * * * * * * * * * * * * * * * * * * * * * * * * //

dimensions      [0 3 -1 0 0 0 0];

internalField   nonuniform List<scalar> 
890
(
0.0098354
0.0001646
0.00974635
8.90497e-05
0.00949703
0.000249318
0.00949551
1.5265e-06
0.000148857
0.00934665
0.010114
5.05844e-05
0.0102051
-2.05107e-06
0.0104171
3.73647e-05
0.0104377
-1.90829e-05
-7.22885e-05
0.0106588
0.0100797
-2.9129e-05
0.0102013
-0.000123645
0.0103679
-0.00012919
0.0105099
-0.000161114
-0.000203528
0.0106411
0.0101003
-0.000129392
0.0102002
-0.000223588
0.0103067
-0.000235709
0.010406
-0.000260348
-0.000257053
0.0104595
0.00987061
0.00964702
0.00941131
0.00915096
0.00889391
0.00906998
-0.000181111
0.000457779
0.00922355
-0.000184601
3.10294e-05
0.00954289
-0.000172682
-0.000146655
0.00997849
-0.000314187
-0.000121413
0.0105074
-0.000854522
0.000325564
0.010919
-0.00154532
0.00113377
0.0109893
-0.00233473
0.0022644
0.0107773
-0.00321329
0.00342535
0.0103071
-0.00379034
0.00426047
0.00947356
-0.00384454
0.00467811
0.00841443
-0.00325107
0.0043102
0.00725104
-0.00204626
0.00320965
0.00610962
-0.000975237
0.00211666
0.00532957
-0.000515413
0.00129546
0.00508014
-0.000344046
0.000593468
0.00518957
-0.000119615
1.01849e-05
0.00541371
0.000132596
-0.000356735
0.00559335
0.000316899
-0.000496537
0.00569591
0.000381067
-0.000483628
0.00573949
0.00035945
-0.000403026
0.00575167
0.000297819
-0.000310006
0.00575165
0.000228742
-0.000228719
0.00574882
0.000168084
-0.000165257
0.00574656
0.000120466
-0.000118204
0.00574548
8.51815e-05
-8.41007e-05
0.0057453
5.97961e-05
-5.96176e-05
0.00574563
4.17892e-05
-4.21158e-05
0.00574617
2.90987e-05
-2.96406e-05
0.00574676
2.01859e-05
-2.07724e-05
0.0057473
1.39438e-05
-1.44872e-05
0.00574776
9.58596e-06
-1.00485e-05
0.00574814
6.55576e-06
-6.92772e-06
0.00574842
4.45777e-06
-4.74544e-06
0.00574864
3.01214e-06
-3.22747e-06
0.0057488
2.02088e-06
-2.17867e-06
0.00574891
1.34492e-06
-1.45876e-06
0.00574899
8.86616e-07
-9.66777e-07
0.00574905
5.80356e-07
-6.3715e-07
0.00574909
3.732e-07
-4.12312e-07
0.00574911
2.4273e-07
-2.69169e-07
0.00574913
1.51463e-07
-1.7014e-07
0.00574914
1.02176e-07
-1.14805e-07
0.00574915
6.53684e-08
-7.35248e-08
0.00574916
5.22307e-08
-5.91878e-08
4.41774e-08
-4.88421e-08
0.0106875
-0.000209737
0.010858
-0.000355162
0.0110822
-0.000396878
0.0112826
-0.00051458
0.0114118
-0.000983739
0.0113756
-0.00150913
0.0110766
-0.00203572
0.0105175
-0.00265414
0.00963873
-0.00291159
0.00843664
-0.00264244
0.00726288
-0.00207731
0.00639834
-0.00118172
0.00574237
-0.000319273
0.00521635
1.06127e-05
0.00488528
-1.29801e-05
0.00481336
-4.76962e-05
0.00492128
2.46798e-05
0.00510427
0.000133908
0.00528039
0.000204953
0.00542015
0.000219684
0.00552094
0.000197032
0.00559018
0.000159495
0.00563697
0.000121303
0.00566859
8.88393e-05
0.00569013
6.36392e-05
0.00570492
4.50069e-05
0.00571513
3.15834e-05
0.00572218
2.20432e-05
0.00572706
1.53131e-05
0.00573041
1.05865e-05
0.00573272
7.27898e-06
0.0057343
4.97421e-06
0.00573539
3.37438e-06
0.00573613
2.27126e-06
0.00573664
1.51349e-06
0.00573698
9.97859e-07
0.00573722
6.50512e-07
0.00573738
4.18111e-07
0.00573749
2.64134e-07
0.00573756
1.68529e-07
0.00573761
1.00691e-07
0.00573765
6.78429e-08
0.00573767
4.25142e-08
0.00573769
3.38208e-08
3.17552e-08
0.0106922
-0.000260818
0.01076
-0.000422903
0.0108675
-0.000504454
0.01095
-0.000597089
0.0108868
-0.000920469
0.0106567
-0.00127905
0.0103214
-0.00170046
0.00982011
-0.00215282
0.0091135
-0.00220498
0.00828838
-0.00181732
0.00756327
-0.0013522
0.00722575
-0.0008442
0.00716449
-0.000258018
0.00700898
0.000166127
0.00664528
0.00035072
0.00619498
0.000402604
0.00583382
0.000385832
0.00561962
0.000348107
0.00552675
0.000297823
0.00550558
0.00024086
0.00551769
0.000184919
0.00554094
0.000136243
0.00556472
9.75265e-05
0.00558504
6.85215e-05
0.00560109
4.75908e-05
0.00561328
3.28161e-05
0.00562235
2.25115e-05
0.00562902
1.53674e-05
0.0056339
1.04342e-05
0.00563745
7.03836e-06
0.00564002
4.71167e-06
0.00564186
3.13008e-06
0.00564318
2.06186e-06
0.0056441
1.34741e-06
0.00564475
8.67292e-07
0.00564519
5.5088e-07
0.0056455
3.44396e-07
0.00564571
2.07535e-07
0.00564585
1.24117e-07
0.00564594
7.29201e-08
0.00564601
3.65731e-08
0.00564605
2.49303e-08
0.00564608
1.34148e-08
0.0056461
1.07911e-08
1.57236e-08
0.0104846
-0.000285895
0.0104445
-0.000382883
0.0103575
-0.000417433
0.0102606
-0.000500208
0.00999449
-0.00065432
0.0095456
-0.000830158
0.00899759
-0.00115245
0.00820739
-0.00136262
0.00716736
-0.00116495
0.00610529
-0.000755257
0.00516125
-0.000408155
0.00449261
-0.000175556
0.00419245
4.21426e-05
0.00412744
0.000231137
0.00414269
0.000335461
0.00420597
0.000339325
0.00430822
0.000283583
0.00444145
0.000214883
0.00458284
0.000156429
0.00471162
0.000112083
0.0048172
7.93396e-05
0.00489791
5.55316e-05
0.0049569
3.85296e-05
0.00499886
2.65641e-05
0.00502823
1.82234e-05
0.0050486
1.24441e-05
0.00506266
8.45501e-06
0.00507232
5.70804e-06
0.00507893
3.82356e-06
0.00508343
2.53599e-06
0.00508648
1.66253e-06
0.00508854
1.07443e-06
0.00508992
6.80647e-07
0.00509084
4.23213e-07
0.00509146
2.52325e-07
0.00509186
1.45624e-07
0.00509213
7.85065e-08
0.0050923
3.55425e-08
0.00509241
1.50971e-08
0.00509248
1.36656e-09
0.00509252
-6.14727e-09
0.00509255
-3.6846e-09
0.00509257
-6.1016e-09
0.00509258
-3.54053e-09
3.30978e-09
0.00860801
0.00822513
0.0078077
0.00730749
0.00665317
0.00582301
0.00467056
0.00330794
0.00214299
0.00138773
0.000979577
0.000804021
0.000846164
0.0010773
0.00141276
0.00175209
0.00203567
0.00225055
0.00240698
0.00251906
0.0025984
0.00265394
0.00269247
0.00271903
0.00273725
0.0027497
0.00275815
0.00276386
0.00276768
0.00277022
0.00277188
0.00277296
0.00277364
0.00277406
0.00277431
0.00277446
0.00277454
0.00277457
0.00277459
0.00277459
0.00277458
0.00277458
0.00277457
0.00277457
-0.000371083
0.000371083
-0.000998292
0.000627208
-0.00201569
0.00101739
-0.00322436
0.00120868
-0.00426292
0.00103856
-0.00485666
0.000593741
-0.00480606
-5.06076e-05
-0.00414197
-0.000664087
-0.0029333
-0.00120867
-0.00139189
-0.00154142
0.000209248
-0.00160113
0.00158988
-0.00138063
0.00257426
-0.000984376
0.00315067
-0.000576415
0.00340553
-0.000254855
0.00345076
-4.52314e-05
0.00338642
6.43361e-05
0.00327736
0.000109067
0.00316209
0.000115261
0.00306005
0.000102049
0.00297793
8.21194e-05
0.00291579
6.21331e-05
0.00287076
4.50345e-05
0.0028391
3.16628e-05
0.00281731
2.17833e-05
0.00280256
1.47517e-05
0.00279269
9.87155e-06
0.00278614
6.54445e-06
0.00278184
4.30158e-06
0.00277904
2.80214e-06
0.00277724
1.80557e-06
0.00277609
1.14774e-06
0.00277537
7.18748e-07
0.00277493
4.38462e-07
0.00277467
2.62258e-07
0.00277452
1.49116e-07
0.00277444
7.90014e-08
0.0027744
4.02215e-08
0.00277439
1.22016e-08
0.00277439
1.66606e-09
0.00277439
-4.00812e-09
0.0027744
-8.0886e-09
0.0027744
-5.45965e-09
0.0027744
-1.62093e-09
3.12984e-09
-0.000600413
0.000971497
-0.00139368
0.00142048
-0.00232904
0.00195275
-0.00315744
0.00203708
-0.00370869
0.00158981
-0.00386825
0.000753301
-0.00355619
-0.000362674
-0.00274574
-0.00147453
-0.00149061
-0.0024638
5.0262e-05
-0.00308229
0.00163315
-0.00318402
0.00305533
-0.00280282
0.00413284
-0.00206188
0.00481149
-0.00125507
0.00517295
-0.000616314
0.00534355
-0.000215832
0.00540951
-1.61656e-06
0.00541033
0.000108247
0.0053791
0.00014649
0.0053334
0.000147753
0.00528479
0.000130729
0.00524012
0.000106798
0.00520249
8.26655e-05
0.00517256
6.15898e-05
0.00514972
4.46301e-05
0.00513279
3.16755e-05
0.00512054
2.21198e-05
0.00511183
1.52589e-05
0.00510571
1.04227e-05
0.00510145
7.05624e-06
0.00509852
4.73636e-06
0.00509652
3.15066e-06
0.00509516
2.07774e-06
0.00509425
1.35312e-06
0.00509364
8.72827e-07
0.00509323
5.53912e-07
0.00509297
3.42891e-07
0.0050928
2.12481e-07
0.00509269
1.22211e-07
0.00509262
7.08844e-08
0.00509257
4.03042e-08
0.00509254
2.13132e-08
0.00509252
1.20175e-08
0.00509251
1.30642e-08
1.59631e-08
-9.40862e-05
0.00106558
-0.000332972
0.00165937
-0.00060075
0.00222052
-0.000737692
0.00217402
-0.000702575
0.0015547
-0.000453376
0.000504101
5.22234e-05
-0.000868273
0.000809611
-0.00223192
0.001768
-0.00342219
0.00285514
-0.00416943
0.00390555
-0.00423443
0.00479606
-0.00369332
0.00549237
-0.00275819
0.00590833
-0.00167103
0.00605194
-0.000759922
0.00603424
-0.000198139
0.00596348
6.91448e-05
0.00590483
0.000166896
0.00585889
0.000192432
0.00582101
0.000185637
0.00578774
0.000163993
0.00575814
0.000136397
0.00573257
0.000108239
0.00571138
8.27768e-05
0.0056945
6.15117e-05
0.00568146
4.47136e-05
0.00567162
3.19609e-05
0.00566433
2.25518e-05
0.005659
1.57485e-05
0.00565516
1.09004e-05
0.00565241
7.48402e-06
0.00565046
5.09791e-06
0.0056491
3.4464e-06
0.00564814
2.30919e-06
0.00564748
1.53447e-06
0.00564702
1.00961e-06
0.00564671
6.54425e-07
0.0056465
4.22996e-07
0.00564636
2.65047e-07
0.00564626
1.67087e-07
0.0056462
1.03125e-07
0.00564615
6.63426e-08
0.00564612
4.10617e-08
0.0056461
3.52153e-08
3.22164e-08
0.000510222
0.000555361
0.00112046
0.00104913
0.00173381
0.00160717
0.00238942
0.00151841
0.00303756
0.000906559
0.00370975
-0.000168091
0.00439763
-0.00155615
0.00507784
-0.00291213
0.00569541
-0.00403976
0.00627066
-0.00474468
0.00665597
-0.00461975
0.00676569
-0.00380304
0.0067978
-0.00279031
0.00683964
-0.00171287
0.00679726
-0.000717539
0.00664276
-4.36348e-05
0.006414
0.000297906
0.00620301
0.000377883
0.00604708
0.00034836
0.00594399
0.000288728
0.00587853
0.000229452
0.00583651
0.000178417
0.00580843
0.00013632
0.00578882
0.000102385
0.00577469
7.56406e-05
0.00576436
5.50496e-05
0.00575678
3.9538e-05
0.00575126
2.80749e-05
0.00574726
1.97398e-05
0.00574441
1.37592e-05
0.00574237
9.51519e-06
0.00574094
6.5315e-06
0.00573994
4.45194e-06
0.00573923
3.01169e-06
0.00573875
2.02221e-06
0.00573841
1.3469e-06
0.00573818
8.8709e-07
0.00573802
5.81744e-07
0.00573791
3.73774e-07
0.00573783
2.41824e-07
0.00573778
1.52311e-07
0.00573775
1.01786e-07
0.00573772
6.45584e-08
0.00573771
5.27678e-08
4.44899e-08
0.00101314
0.00209329
0.00355381
0.00495081
0.00618294
0.00714862
0.00785686
0.00837008
0.0085908
0.00852423
0.00821468
0.00762129
0.00694764
0.00653024
0.00640617
0.00637272
0.00631389
0.00619523
0.00605996
0.00594567
0.00586511
0.00581481
0.00578587
0.00577005
0.00576159
0.00575703
0.00575445
0.00575288
0.00575185
0.00575112
0.00575059
0.00575019
0.0057499
0.00574968
0.00574953
0.00574942
0.00574934
0.00574928
0.00574924
0.00574921
0.0057492
0.00574918
0.00574917
0.00574917
)
;

boundaryField
{
    inlet
    {
        type            calculated;
        value           nonuniform List<scalar> 5(-0.01 -0.01 -0.01 -0.01 -0.01);
    }
    outlet
    {
        type            calculated;
        value           nonuniform List<scalar> 10(0.00574916 0.0057377 0.00564612 0.0050926 0.00277457 0.0027744 0.0050925 0.00564609 0.0057377 0.00574916);
    }
    upperWall
    {
        type            calculated;
        value           uniform 0;
    }
    lowerWall
    {
        type            calculated;
        value           uniform 0;
    }
    frontAndBack
    {
        type            empty;
        value           nonuniform List<scalar> 0();
    }
}


// ************************************************************************* //
