/*--------------------------------*- C++ -*----------------------------------*\
  =========                 |
  \\      /  F ield         | OpenFOAM: The Open Source CFD Toolbox
   \\    /   O peration     | Website:  https://openfoam.org
    \\  /    A nd           | Version:  10
     \\/     M anipulation  |
\*---------------------------------------------------------------------------*/
FoamFile
{
    format      ascii;
    class       volScalarField;
    location    "3.95";
    object      p;
}
// * * * * * * * * * * * * * * * * * * * * * * * * * * * * * * * * * * * * * //

dimensions      [0 2 -2 0 0 0 0];

internalField   nonuniform List<scalar> 
400
(
-9.12071e-10
-3.05664e-05
-9.83048e-06
3.68235e-05
0.000115492
0.000226762
0.000371057
0.000548558
0.00075862
0.000999309
0.00126697
0.00155576
0.00185727
0.0021603
0.00245101
0.00271352
0.0029306
0.00308579
0.00317659
0.00315712
3.08084e-05
-8.37068e-07
2.11809e-05
6.57515e-05
0.000140397
0.000246312
0.000384329
0.000555004
0.000758056
0.000991949
0.00125343
0.00153675
0.0018344
0.00213522
0.0024254
0.00268889
0.00290796
0.003066
0.00316161
0.00314083
6.44321e-06
-3.02661e-05
-9.91463e-06
3.19071e-05
0.000103493
0.000206269
0.000341472
0.000510192
0.000712766
0.000948295
0.00121414
0.00150581
0.00181538
0.00213173
0.00244038
0.00272388
0.00296216
0.00313547
0.00324142
0.00321611
-4.93277e-05
-9.03375e-05
-7.23029e-05
-3.41326e-05
3.34001e-05
0.000132121
0.00026391
0.000430685
0.000633752
0.00087328
0.00114771
0.0014532
0.00178327
0.00212656
0.0024675
0.00278609
0.00305835
0.00325928
0.00338429
0.00335705
-0.00014229
-0.000188003
-0.000173034
-0.000139431
-7.68755e-05
1.69924e-05
0.000144901
0.000309872
0.000514538
0.000760584
0.00104805
0.00137453
0.00173479
0.00211777
0.00250691
0.0028792
0.00320483
0.0034501
0.00360608
0.0035791
-0.000272584
-0.000323995
-0.000313008
-0.0002853
-0.000229294
-0.000141992
-1.96188e-05
0.000142247
0.000347959
0.000601237
0.000904357
0.00125711
0.00165695
0.00209351
0.00254965
0.00299882
0.00340356
0.0037169
0.0039216
0.00389876
-0.000440286
-0.000498668
-0.000492823
-0.000472908
-0.000425902
-0.000348102
-0.000234525
-7.90646e-05
0.000124804
0.000383481
0.000702292
0.0010837
0.00153132
0.00203523
0.00257963
0.00313485
0.00365402
0.00407089
0.00435204
0.00434286
-0.000645811
-0.000712668
-0.000713402
-0.000703781
-0.000669189
-0.00060523
-0.000505611
-0.000362328
-0.000166279
9.23994e-05
0.000423716
0.000837177
0.00133223
0.00191463
0.0025701
0.00326735
0.00394928
0.0045243
0.00492691
0.00495532
-0.00088967
-0.000966678
-0.000975609
-0.000979328
-0.000961528
-0.00091724
-0.000838892
-0.000716521
-0.000538252
-0.000290391
4.21563e-05
0.000474495
0.00101948
0.00168816
0.00247641
0.00335767
0.00426725
0.00508484
0.00568434
0.00581037
-0.00117246
-0.00126138
-0.00128007
-0.00130051
-0.00130468
-0.00128732
-0.00123978
-0.0011503
-0.0010043
-0.000784054
-0.000468491
-3.37576e-05
0.000544555
0.00129316
0.00222595
0.00333319
0.0045528
0.00573929
0.0066695
0.00703882
-0.00149508
-0.0015976
-0.00162706
-0.00166748
-0.00169921
-0.00171716
-0.00171197
-0.00167055
-0.00157616
-0.00140757
-0.00113787
-0.000733473
-0.000153414
0.000639361
0.00170295
0.00306136
0.00468212
0.00641921
0.0079215
0.00886728
-0.00185937
-0.00197673
-0.00201651
-0.00207928
-0.00214384
-0.00220588
-0.00225591
-0.00228026
-0.00226121
-0.00217566
-0.00199305
-0.00167234
-0.00115941
-0.000386845
0.000739303
0.00231034
0.00438605
0.00689576
0.00935781
0.011738
-0.00226957
-0.00240163
-0.0024482
-0.00253342
-0.00263458
-0.00274888
-0.00286716
-0.00297607
-0.00305867
-0.003093
-0.00304946
-0.00288615
-0.0025424
-0.00193069
-0.000954267
0.000629676
0.00305007
0.00646849
0.0104961
0.0155877
-0.00273445
-0.00287515
-0.00291706
-0.00302086
-0.00316138
-0.00333603
-0.00353501
-0.00374591
-0.00395494
-0.00414533
-0.00429493
-0.00437252
-0.00432913
-0.00408104
-0.00349084
-0.0024064
-0.000338215
0.00345152
0.00897198
0.0182969
-0.00327964
-0.00343859
-0.00346492
-0.00358518
-0.00375278
-0.00397621
-0.00425186
-0.00457117
-0.00492411
-0.0053016
-0.00569748
-0.00610827
-0.00653263
-0.00697021
-0.00744215
-0.00797098
-0.00826725
-0.00625296
-0.00111367
0.0133173
-0.00398384
-0.00393902
-0.00388901
-0.00396445
-0.00417276
-0.00449042
-0.00489532
-0.00536708
-0.00589475
-0.00647709
-0.00712896
-0.00788819
-0.00883559
-0.0101138
-0.012093
-0.0152277
-0.0202585
-0.0223209
-0.0191371
0.00124533
-0.00445874
-0.0049214
-0.00476055
-0.00494219
-0.00513523
-0.00544065
-0.0058567
-0.00637656
-0.0069957
-0.00771877
-0.00857493
-0.00963982
-0.0110985
-0.0132242
-0.016966
-0.0225418
-0.033575
-0.0415348
-0.0383541
-0.00686352
-0.00766265
-0.00515337
-0.0047412
-0.00447291
-0.0047218
-0.00522531
-0.00590441
-0.00668393
-0.0075478
-0.00848259
-0.00954042
-0.0107734
-0.0125138
-0.0148723
-0.0196642
-0.0260464
-0.038547
-0.0468034
-0.040791
0.0116036
-0.0044952
-0.00738093
-0.00662036
-0.00699537
-0.00701327
-0.00724518
-0.00766515
-0.0082511
-0.00897199
-0.00981646
-0.0107651
-0.0118688
-0.0135487
-0.0156586
-0.0205485
-0.026719
-0.0367888
-0.0371634
-0.0139694
0.0716158
-0.028984
-0.00412997
-0.00314249
-0.00281137
-0.00309067
-0.00384163
-0.00490911
-0.00600998
-0.00722675
-0.00837868
-0.00974532
-0.0110852
-0.0130573
-0.0153573
-0.0184909
-0.0204645
-0.0181288
0.00596868
0.0706282
0.209162
)
;

boundaryField
{
    movingWall
    {
        type            zeroGradient;
    }
    fixedWalls
    {
        type            zeroGradient;
    }
    frontAndBack
    {
        type            empty;
    }
}


// ************************************************************************* //
