/*--------------------------------*- C++ -*----------------------------------*\
  =========                 |
  \\      /  F ield         | OpenFOAM: The Open Source CFD Toolbox
   \\    /   O peration     | Website:  https://openfoam.org
    \\  /    A nd           | Version:  10
     \\/     M anipulation  |
\*---------------------------------------------------------------------------*/
FoamFile
{
    format      ascii;
    class       volVectorField;
    location    "6.925";
    object      U;
}
// * * * * * * * * * * * * * * * * * * * * * * * * * * * * * * * * * * * * * //

dimensions      [0 1 -1 0 0 0 0];

internalField   nonuniform List<vector> 
496
(
(9.9584 0.074857 0)
(9.97306 -0.183144 0)
(10.2477 -0.145318 0)
(10.9032 -0.194906 0)
(10.0087 0.454256 0)
(9.8806 -1.31141 0)
(10.2899 -0.461641 0)
(11.0242 -1.12684 0)
(10.8226 1.42449 0)
(9.18912 -3.21306 0)
(11.2922 -0.181588 0)
(11.1173 -4.27068 0)
(12.07 1.40903 0)
(8.37854 -2.72004 0)
(12.4873 0.547765 0)
(11.4808 -7.04208 0)
(11.5268 -0.240545 1.45722e-18)
(12.2982 -0.123345 1.14596e-18)
(11.7606 -0.523926 -2.83041e-18)
(12.74 0.326064 4.11188e-18)
(13.4618 -2.19654 1.37213e-18)
(13.6865 0.0855504 -5.25837e-18)
(12.2819 -5.63103 -5.32869e-17)
(17.8953 -4.71653 8.29053e-17)
(12.7017 -0.123812 0)
(12.8348 -0.0613555 0)
(12.6996 0.169744 0)
(12.5332 0.304719 0)
(13.1836 0.429225 0)
(13.5025 -0.100483 0)
(13.5788 -0.461625 0)
(13.215 -0.753947 0)
(13.2765 1.26153 0)
(12.5585 2.72663 0)
(13.0595 1.97015 0)
(12.6584 0.968919 0)
(8.65221 -2.05907 0)
(14.0656 -2.45555 0)
(8.77799 0.84274 0)
(10.1492 -0.279229 0)
(12.3881 0.356942 0)
(12.4372 0.263584 0)
(12.6614 0.298881 0)
(12.9275 0.322922 0)
(13.1998 0.406385 0)
(13.295 0.448018 0)
(13.3666 0.463022 0)
(13.1853 0.496337 0)
(13.1191 0.474032 0)
(12.848 0.525617 0)
(12.782 0.488976 0)
(12.4701 0.513457 0)
(12.4014 0.4367 0)
(12.1829 0.447461 0)
(12.184 0.34548 0)
(12.0664 0.306517 0)
(12.068 0.241837 0)
(12.088 0.251529 0)
(12.0535 0.288041 0)
(12.0097 0.304874 0)
(11.7707 0.373191 0)
(11.608 0.358743 0)
(11.2529 0.438751 0)
(10.9947 0.400894 0)
(10.738 0.438442 0)
(10.5728 0.326151 0)
(10.6581 0.271494 0)
(10.6707 0.175866 0)
(11.0834 0.117953 0)
(11.1978 0.123719 0)
(11.6701 0.10928 0)
(11.6468 0.199705 0)
(11.7847 0.238309 0)
(11.5283 0.374873 0)
(11.2419 0.412754 0)
(10.9201 0.508759 0)
(10.3742 0.53074 0)
(10.238 0.484766 0)
(9.79418 0.468014 0)
(9.86547 0.276188 0)
(12.9755 -0.856406 0)
(12.9453 -1.01726 0)
(13.3224 -0.909729 0)
(13.5963 -0.862258 0)
(13.9017 -0.659001 0)
(13.9609 -0.537511 0)
(14.0405 -0.378195 0)
(13.9195 -0.287282 0)
(13.8658 -0.212418 0)
(13.7071 -0.0973786 0)
(13.5783 -0.113536 0)
(13.3832 -0.0717523 0)
(13.2337 -0.177208 0)
(13.131 -0.128655 0)
(13.0087 -0.222636 0)
(13.0286 -0.217426 0)
(13.0292 -0.249465 0)
(13.1966 -0.183563 0)
(13.2152 -0.0906722 0)
(13.2347 -0.00778446 0)
(13.1031 0.150782 0)
(12.9347 0.176066 0)
(12.7613 0.194837 0)
(12.439 0.0183894 0)
(12.2851 -0.067887 0)
(11.982 -0.283695 0)
(12.0542 -0.375799 0)
(12.0202 -0.551898 0)
(12.3061 -0.627645 0)
(12.5177 -0.57686 0)
(12.8231 -0.519245 0)
(13.0828 -0.236264 0)
(13.1585 -0.119541 0)
(13.2423 0.213904 0)
(12.9695 0.245013 0)
(12.9436 0.312072 0)
(12.5018 0.154671 0)
(12.39 -0.00971298 0)
(11.9982 -0.137208 0)
(11.7945 -0.329585 0)
(12.8721 0.473506 0)
(12.593 0.062441 0)
(13.1948 0.0409748 0)
(13.2061 -0.120464 0)
(13.5172 0.00306313 0)
(13.6587 0.184082 0)
(13.6473 0.368032 0)
(13.7524 0.543287 0)
(13.548 0.59631 0)
(13.7401 0.875104 0)
(13.3045 0.723401 0)
(13.4394 0.872688 0)
(13.0064 0.580418 0)
(13.192 0.572629 0)
(12.8329 0.180621 0)
(12.9336 0.11985 0)
(12.8782 -0.0292374 0)
(12.9928 -0.0089937 0)
(13.1865 0.132245 0)
(13.1825 0.190648 0)
(13.4887 0.633599 0)
(13.2125 0.716816 0)
(13.2858 1.18392 0)
(12.7226 1.05003 0)
(12.7333 1.10109 0)
(12.2847 0.562067 0)
(12.2605 0.107025 0)
(12.0233 -0.333864 0)
(11.9952 -0.660575 0)
(12.1936 -0.563457 0)
(12.2405 -0.690453 0)
(12.6584 -0.217584 0)
(12.7407 -0.13934 0)
(13.203 0.504033 0)
(13.1468 0.714971 0)
(13.2102 1.1008 0)
(12.8994 1.29111 0)
(12.5838 1.14468 0)
(12.311 1.20067 0)
(11.9659 0.406298 0)
(10.1821 -0.317067 0)
(9.63298 -0.645524 0)
(10.0977 -0.866918 0)
(9.3615 -1.17474 0)
(9.55325 -0.937298 0)
(9.71467 -0.672055 0)
(10.1011 -0.588377 0)
(9.64192 -0.349029 0)
(10.0397 0.0277146 0)
(10.6687 0.178571 0)
(10.1176 0.250701 0)
(10.8873 0.312299 0)
(9.93048 0.288102 0)
(10.4291 0.250033 0)
(9.1936 0.116649 0)
(9.79835 0.102629 0)
(9.08782 -0.0518578 0)
(9.51324 -0.164234 0)
(9.51277 -0.292585 0)
(9.7684 -0.269489 0)
(10.6326 -0.112173 0)
(10.6205 0.0064126 0)
(11.6561 0.219424 0)
(11.2662 0.271311 0)
(11.8299 0.373269 0)
(10.8978 0.308855 0)
(10.4866 0.267677 0)
(9.57592 0.158473 0)
(8.86722 -0.0984173 0)
(8.84241 -0.316182 0)
(8.422 -0.672786 0)
(9.20158 -0.679531 0)
(9.27131 -0.619895 0)
(10.3533 -0.292044 0)
(10.6572 -0.0409066 0)
(11.3739 0.241218 0)
(12.0394 0.440874 0)
(12.1241 0.402301 0)
(12.7879 0.399562 0)
(12.224 0.120434 0)
(12.5453 0.543187 -1.04372e-17)
(7.48907 -1.08838 -1.74085e-17)
(12.3354 -0.398726 3.06005e-17)
(4.12433 -5.24818 -7.98063e-17)
(11.9819 -0.672784 1.10144e-17)
(8.09268 0.774759 1.83967e-17)
(11.2631 -0.617542 -3.23195e-17)
(4.56125 4.63549 8.68788e-17)
(12.2015 3.65566 0)
(-9.2702 5.20953 0)
(3.19211 -4.41514 0)
(1.44016 3.24702 0)
(-7.14841 -1.74893 1.89939e-17)
(1.25878 3.15846 0)
(4.6164 -3.90556 0)
(-3.28104 0.885571 0)
(-1.5051 0.191638 0)
(3.43589 -0.483956 0)
(-0.434175 0.00407181 0)
(1.25064 -1.62181 0)
(1.48651 -0.762405 0)
(0.324074 1.69111 0)
(-0.313394 -0.326585 0)
(0.0403147 -0.408726 0)
(1.05542 0.508337 0)
(1.23454 0.52833 0)
(1.45165 0.700482 0)
(0.744349 0.86766 0)
(1.1422 0.71113 0)
(1.52565 0.492278 0)
(1.16155 0.480475 0)
(1.79877 0.315403 0)
(2.01368 -0.092004 0)
(2.17572 -0.409629 0)
(2.29683 -0.487351 0)
(3.01687 -0.429858 0)
(3.42037 -0.0954624 0)
(3.54894 0.18825 0)
(3.60848 0.520663 0)
(3.64535 0.911185 0)
(3.78475 1.28439 0)
(3.2686 1.17913 0)
(3.20261 0.847736 0)
(3.34853 0.50448 0)
(3.33595 -0.211956 0)
(3.81942 -0.613646 0)
(3.73511 -1.1002 0)
(4.19945 -1.25552 0)
(4.95558 -0.963564 0)
(4.96225 -0.721078 0)
(5.4956 -0.36027 0)
(5.70362 0.210077 0)
(5.43714 0.468009 0)
(5.71577 0.755327 0)
(5.12425 1.03495 0)
(4.8478 0.595684 0)
(4.54876 -0.267304 0)
(1.64452 -1.70353 0)
(1.0914 0.718636 0)
(2.23517 -1.21565 0)
(-2.00003 0.386713 0)
(-0.171791 0.204667 0)
(1.31018 -1.24891 0)
(-0.704051 -0.720356 0)
(-0.143784 -0.472451 0)
(-0.0891028 -0.220401 0)
(-0.0671906 0.30668 0)
(0.688128 0.328723 0)
(1.54815 -0.110147 0)
(1.27986 0.100781 0)
(1.29702 0.0766118 0)
(2.32209 -0.425162 0)
(2.1155 -0.676174 0)
(2.01179 -0.686927 0)
(2.1745 -0.833159 0)
(2.22047 -0.958611 0)
(2.20947 -0.669559 0)
(2.23415 -0.254895 0)
(2.31609 0.297701 0)
(2.75859 0.542572 0)
(3.10162 0.726052 0)
(3.60708 0.735075 0)
(3.5738 0.564115 0)
(4.39442 0.148695 0)
(4.44073 -0.496864 0)
(4.38192 -0.904722 0)
(4.1844 -1.1698 0)
(3.84096 -1.33654 0)
(3.87839 -1.28297 0)
(3.5079 -0.867283 0)
(3.27934 -0.283712 0)
(3.69882 0.221563 0)
(3.68911 0.461974 0)
(3.58585 0.728169 0)
(4.01178 0.937171 0)
(4.26511 0.344236 0)
(11.773 -1.39442 0)
(8.55817 2.0803 0)
(12.0272 -0.332508 0)
(10.5104 5.26748 0)
(10.7199 -1.23098 0)
(9.32809 2.47466 0)
(10.7486 0.354746 0)
(10.9786 3.22199 0)
(10.0891 -0.431319 0)
(9.8192 1.01069 0)
(10.1478 0.476472 0)
(10.8268 0.922083 0)
(9.99741 -0.0624842 0)
(9.92011 0.132104 0)
(10.1735 0.144485 0)
(10.6978 0.198364 0)
(12.1928 5.78769 2.09368e-17)
(15.4454 3.27265 -4.38452e-17)
(12.3157 2.21541 0)
(13.2859 0.277363 0)
(11.4118 0.654545 0)
(12.4187 0.0703371 0)
(11.328 0.237227 0)
(12.009 0.199527 0)
(9.88915 4.26581 0)
(8.29195 1.36828 0)
(10.0728 -0.7663 0)
(10.5129 0.431354 0)
(12.6695 -0.186328 0)
(12.9627 -0.00618581 0)
(13.5896 -0.410698 0)
(14.1232 -0.70289 0)
(13.0109 0.0535344 0)
(13.4419 0.369334 0)
(13.8698 0.350889 0)
(14.1205 0.103101 0)
(12.6693 0.203157 0)
(13.0234 0.213973 0)
(13.3537 0.194132 0)
(13.4205 0.0350302 0)
(7.51049 0.14999 0)
(9.37091 0.254817 0)
(7.95396 0.696585 0)
(8.96153 0.757457 0)
(8.53404 0.880365 0)
(8.25013 0.491931 0)
(8.16204 0.229686 0)
(8.76855 0.198889 0)
(8.23847 0.0527699 0)
(8.49622 0.0620242 0)
(8.35952 0.165637 0)
(8.25156 0.171073 0)
(9.19431 0.090768 0)
(9.1109 0.125522 0)
(10.0643 0.0308554 0)
(9.78792 -0.127273 0)
(10.8766 -0.264476 0)
(10.3017 -0.3056 0)
(10.6287 -0.342854 0)
(9.97919 -0.280373 0)
(9.59075 -0.232404 0)
(9.32725 -0.0890286 0)
(8.50986 0.124983 0)
(9.07264 0.317864 0)
(8.56149 0.455738 0)
(9.85724 0.429492 0)
(9.60587 0.374108 0)
(10.869 0.104429 0)
(10.9964 -0.0890556 0)
(11.6432 -0.22998 0)
(11.5601 -0.288259 0)
(10.7727 -0.276164 0)
(10.2817 -0.394614 0)
(8.74149 -0.388546 0)
(8.35412 -0.221105 0)
(7.35399 -0.019115 0)
(7.52097 0.218869 0)
(7.68465 0.352586 0)
(7.75412 0.516545 0)
(8.74035 0.32301 0)
(13.2198 -0.328501 0)
(13.1479 -0.318354 0)
(13.2418 -0.266554 0)
(13.4943 -0.396497 0)
(13.661 -0.429074 0)
(13.6007 -0.466308 0)
(13.6745 -0.460407 0)
(13.454 -0.515088 0)
(13.6686 -0.57318 0)
(13.3903 -0.477634 0)
(13.66 -0.527971 0)
(13.3065 -0.341544 0)
(13.6869 -0.564144 0)
(13.5036 -0.527908 0)
(13.6875 -0.83591 0)
(13.434 -0.814959 0)
(13.3229 -1.00608 0)
(13.1225 -0.934758 0)
(12.8238 -0.753873 0)
(12.8645 -0.531978 0)
(12.438 -0.0549752 0)
(12.6679 0.0489611 0)
(12.3468 0.404579 0)
(12.7388 0.221969 0)
(12.679 0.288509 0)
(13.0633 -0.148444 0)
(13.1741 -0.389057 0)
(13.1734 -0.798889 0)
(13.1004 -1.12402 0)
(12.6786 -1.162 0)
(12.6767 -1.1562 0)
(12.2485 -0.455402 0)
(12.3025 -0.129225 0)
(11.9701 0.520377 0)
(12.0056 0.504587 0)
(11.8841 0.659055 0)
(11.9076 0.522188 0)
(12.0699 0.273938 0)
(12.1226 0.213769 0)
(12.5316 -0.301787 0)
(13.9811 0.204579 0)
(13.7185 0.476728 0)
(13.6348 0.62285 0)
(13.8459 0.534724 0)
(13.9593 0.498152 0)
(14.0578 0.410585 0)
(13.9179 0.400509 0)
(13.9127 0.384555 0)
(13.8054 0.357644 0)
(13.8387 0.341101 0)
(13.7453 0.258956 0)
(13.7064 0.267953 0)
(13.6255 0.135033 0)
(13.5154 0.0886369 0)
(13.4055 -0.0656899 0)
(13.1368 -0.0325404 0)
(13.0028 -0.0725107 0)
(12.6979 0.0246752 0)
(12.6057 0.126126 0)
(12.3698 0.182198 0)
(12.4118 0.333892 0)
(12.4038 0.309124 0)
(12.5917 0.436938 0)
(12.7405 0.285737 0)
(12.9164 0.251123 0)
(13.0463 0.00906765 0)
(12.9817 -0.124577 0)
(12.9223 -0.221021 0)
(12.6244 -0.238303 0)
(12.424 -0.0735158 0)
(12.1141 -0.0108474 0)
(11.8934 0.196698 0)
(11.8776 0.243705 0)
(11.8447 0.424109 0)
(12.1684 0.370587 0)
(12.2035 0.433269 0)
(12.5985 0.261778 0)
(12.6089 0.19168 0)
(12.8899 0.00616231 0)
(12.8645 -0.177167 0)
(13.3645 -0.0832205 0)
(13.0561 -0.177777 0)
(12.962 -0.221078 0)
(13.0364 -0.351995 0)
(13.2325 -0.449908 0)
(13.3352 -0.530972 0)
(13.2978 -0.539554 0)
(13.2416 -0.508772 0)
(13.1091 -0.503117 0)
(13.0808 -0.468526 0)
(12.9284 -0.498879 0)
(12.8672 -0.460578 0)
(12.6747 -0.509656 0)
(12.5841 -0.482121 0)
(12.3735 -0.517783 0)
(12.1118 -0.473022 0)
(11.8632 -0.487263 0)
(11.561 -0.45428 0)
(11.4602 -0.408477 0)
(11.1848 -0.350688 0)
(11.2872 -0.255364 0)
(11.1756 -0.22225 0)
(11.4701 -0.147091 0)
(11.4651 -0.168811 0)
(11.6965 -0.141808 0)
(11.6227 -0.217356 0)
(11.5533 -0.225651 0)
(11.2722 -0.301238 0)
(10.903 -0.349246 0)
(10.6389 -0.360481 0)
(10.3186 -0.365627 0)
(10.2656 -0.242862 0)
(10.2243 -0.178002 0)
(10.3647 -0.0476403 0)
(10.6407 -0.0282684 0)
(10.7553 -0.00103663 0)
(11.1364 -0.0199424 0)
(10.9923 -0.0860295 0)
(11.2826 -0.118655 0)
(10.9017 -0.217619 0)
)
;

boundaryField
{
    inlet
    {
        type            fixedValue;
        value           uniform (10 0 0);
    }
    outlet
    {
        type            zeroGradient;
    }
    obstacle
    {
        type            noSlip;
    }
    upperWall
    {
        type            noSlip;
    }
    lowerWall
    {
        type            noSlip;
    }
    frontAndBack
    {
        type            empty;
    }
}


// ************************************************************************* //
