/*--------------------------------*- C++ -*----------------------------------*\
  =========                 |
  \\      /  F ield         | OpenFOAM: The Open Source CFD Toolbox
   \\    /   O peration     | Website:  https://openfoam.org
    \\  /    A nd           | Version:  10
     \\/     M anipulation  |
\*---------------------------------------------------------------------------*/
FoamFile
{
    format      ascii;
    class       volVectorField;
    location    "5.5";
    object      U;
}
// * * * * * * * * * * * * * * * * * * * * * * * * * * * * * * * * * * * * * //

dimensions      [0 1 -1 0 0 0 0];

internalField   nonuniform List<vector> 
475
(
(0.974991 0.0158089 0)
(0.975568 0.00700748 0)
(0.950628 0.0310234 0)
(0.953947 0.00149301 0)
(0.919591 0.0300363 0)
(0.998789 0.00824065 0)
(1.01361 0.01531 0)
(1.02593 0.0152411 0)
(1.04345 0.0089294 0)
(1.0553 0.00185981 0)
(0.999881 6.45132e-05 0)
(1.00936 -0.00267829 0)
(1.02445 -0.00482753 0)
(1.04139 -0.0085305 0)
(1.05663 -0.0150832 0)
(0.99992 -0.00985649 0)
(1.01015 -0.0197833 0)
(1.02248 -0.0219361 0)
(1.03623 -0.0228022 0)
(1.04426 -0.0260515 0)
(0.981173 -0.0095709 0)
(0.96896 -0.0194484 0)
(0.953671 -0.0213779 0)
(0.933594 -0.0228659 0)
(0.907043 -0.0224802 0)
(0.925961 -0.0160339 0)
(0.931438 -0.0339616 0)
(0.93723 -0.0438018 0)
(0.945608 -0.051269 0)
(0.95823 -0.0623144 0)
(0.97905 -0.0780993 0)
(1.005 -0.101957 0)
(1.03127 -0.133485 0)
(1.0569 -0.16726 0)
(1.07575 -0.203662 0)
(1.08822 -0.237078 0)
(1.09376 -0.264807 0)
(1.08823 -0.285232 0)
(1.07481 -0.290107 0)
(1.05135 -0.284342 0)
(1.02057 -0.269122 0)
(0.985885 -0.240132 0)
(0.94712 -0.204716 0)
(0.911413 -0.166096 0)
(0.875846 -0.122355 0)
(0.835389 -0.0781336 0)
(0.798202 -0.0401081 0)
(0.766283 -0.00745544 0)
(0.735775 0.0216586 0)
(0.705257 0.0458679 0)
(0.676309 0.0631744 0)
(0.652285 0.0720802 0)
(0.635444 0.0765065 0)
(0.625953 0.0820217 0)
(0.622712 0.0893176 0)
(0.623876 0.0943912 0)
(0.627065 0.0932153 0)
(0.630173 0.0849489 0)
(0.632017 0.0715815 0)
(0.632414 0.0561167 0)
(0.631805 0.0411108 0)
(0.630774 0.0281801 0)
(0.629752 0.0179592 0)
(0.628933 0.0105206 0)
(0.628358 0.00543993 0)
(0.627988 0.00230079 0)
(0.627784 0.000422245 0)
(0.627639 -0.000404384 0)
(0.627566 -0.000854656 0)
(0.627462 -0.000771138 0)
(1.06919 -0.00914596 0)
(1.07856 -0.0202286 0)
(1.08371 -0.0320187 0)
(1.08878 -0.0427264 0)
(1.09197 -0.0577652 0)
(1.09577 -0.0753838 0)
(1.10079 -0.100641 0)
(1.10111 -0.131806 0)
(1.09803 -0.165415 0)
(1.08623 -0.200867 0)
(1.06783 -0.230517 0)
(1.04135 -0.25411 0)
(1.00494 -0.266295 0)
(0.964814 -0.261755 0)
(0.916374 -0.249728 0)
(0.860432 -0.228597 0)
(0.803111 -0.19376 0)
(0.747166 -0.15489 0)
(0.695126 -0.112626 0)
(0.647082 -0.0672515 0)
(0.600746 -0.0298541 0)
(0.556787 -0.00118423 0)
(0.516014 0.0283779 0)
(0.478899 0.0598091 0)
(0.451343 0.083013 0)
(0.438258 0.091221 0)
(0.438222 0.0878115 0)
(0.446732 0.0814046 0)
(0.460379 0.078284 0)
(0.477692 0.0789133 0)
(0.49781 0.0797292 0)
(0.519364 0.0771157 0)
(0.540526 0.0697464 0)
(0.559668 0.058566 0)
(0.575845 0.0456459 0)
(0.58878 0.0330109 0)
(0.598638 0.0220906 0)
(0.605828 0.0135166 0)
(0.610842 0.0073847 0)
(0.614176 0.00330432 0)
(0.616252 0.000921261 0)
(0.617497 -0.000414392 0)
(0.618143 -0.000879652 0)
(0.618477 -0.00111865 0)
(0.618562 -0.000864831 0)
(1.06879 -0.0223805 0)
(1.0776 -0.0323786 0)
(1.08088 -0.0441373 0)
(1.08404 -0.0559071 0)
(1.08092 -0.0708535 0)
(1.07805 -0.0858225 0)
(1.07028 -0.107437 0)
(1.0587 -0.130531 0)
(1.04199 -0.158338 0)
(1.01552 -0.185922 0)
(0.985843 -0.208889 0)
(0.944727 -0.225962 0)
(0.896255 -0.222971 0)
(0.840959 -0.205462 0)
(0.766468 -0.189143 0)
(0.689903 -0.173215 0)
(0.616069 -0.145509 0)
(0.541127 -0.107995 0)
(0.472948 -0.0654163 0)
(0.417219 -0.0225226 0)
(0.373621 0.014215 0)
(0.336937 0.0458941 0)
(0.309702 0.0716886 0)
(0.297855 0.0866006 0)
(0.302728 0.0885516 0)
(0.319769 0.0802791 0)
(0.342058 0.0680763 0)
(0.365015 0.0581133 0)
(0.387771 0.0531987 0)
(0.411482 0.0522398 0)
(0.437053 0.0520855 0)
(0.463938 0.0498914 0)
(0.490451 0.0445165 0)
(0.514699 0.0365458 0)
(0.535286 0.027458 0)
(0.551567 0.0187367 0)
(0.563592 0.011421 0)
(0.571886 0.00593414 0)
(0.577181 0.00227154 0)
(0.580302 6.27955e-05 0)
(0.58192 -0.00101187 0)
(0.582658 -0.00146042 0)
(0.582756 -0.00138347 0)
(0.582751 -0.00130456 0)
(0.582361 -0.000864991 0)
(1.05084 -0.0298809 0)
(1.051 -0.0366829 0)
(1.04825 -0.0426411 0)
(1.04066 -0.0515704 0)
(1.02615 -0.0597433 0)
(1.00951 -0.070028 0)
(0.980224 -0.0837292 0)
(0.950424 -0.0976651 0)
(0.902951 -0.118219 0)
(0.849785 -0.135214 0)
(0.784012 -0.155098 0)
(0.699868 -0.166326 0)
(0.622257 -0.15173 0)
(0.525264 -0.129006 0)
(0.380122 -0.0923821 0)
(0.247461 -0.0448479 0)
(0.157861 -0.0139723 0)
(0.100046 0.000992036 0)
(0.0700253 0.0135256 0)
(0.0590069 0.0289487 0)
(0.0643772 0.0441541 0)
(0.0831336 0.0558825 0)
(0.111548 0.0622424 0)
(0.147028 0.0620643 0)
(0.186187 0.0564633 0)
(0.224345 0.0479471 0)
(0.258184 0.0395728 0)
(0.287255 0.0333834 0)
(0.313162 0.0297953 0)
(0.337971 0.0278756 0)
(0.36282 0.0260828 0)
(0.387311 0.023227 0)
(0.410119 0.0190646 0)
(0.42981 0.0141197 0)
(0.445428 0.00922029 0)
(0.456733 0.00506681 0)
(0.464146 0.00202218 0)
(0.46846 7.38009e-05 0)
(0.470534 -0.000981551 0)
(0.471161 -0.00140807 0)
(0.470965 -0.00142716 0)
(0.470443 -0.00127866 0)
(0.469732 -0.000995912 0)
(0.469243 -0.000802105 0)
(0.468486 -0.000475835 0)
(0.880595 -0.0244717 0)
(0.847189 -0.0264786 0)
(0.815782 -0.0280282 0)
(0.7741 -0.0325551 0)
(0.731922 -0.0332133 0)
(0.680057 -0.0403853 0)
(0.619387 -0.0428112 0)
(0.554468 -0.0525423 0)
(0.464639 -0.0605609 0)
(0.378198 -0.0675552 0)
(0.25322 -0.0894831 0)
(0.114975 -0.0616709 0)
(0.0209525 0.00208911 0)
(-0.0339552 0.041165 0)
(-0.061511 0.0462735 0)
(-0.0747404 0.0213001 0)
(-0.0850209 -0.00768861 0)
(-0.0961306 -0.0197136 0)
(-0.103316 -0.0186951 0)
(-0.100823 -0.0104937 0)
(-0.0867323 -0.000785161 0)
(-0.0618621 0.00657256 0)
(-0.0296129 0.0102039 0)
(0.00575451 0.0109188 0)
(0.0398864 0.0098949 0)
(0.0697811 0.00808739 0)
(0.0946977 0.00636955 0)
(0.115369 0.00511669 0)
(0.133215 0.00434676 0)
(0.149457 0.0038228 0)
(0.164627 0.00324509 0)
(0.178435 0.00249365 0)
(0.190177 0.00165411 0)
(0.199235 0.000862709 0)
(0.205441 0.000238784 0)
(0.209084 -0.000170874 0)
(0.210731 -0.000387107 0)
(0.211031 -0.000469863 0)
(0.210569 -0.000475319 0)
(0.209769 -0.000428397 0)
(0.208894 -0.000351227 0)
(0.208086 -0.000270177 0)
(0.207408 -0.000192705 0)
(0.20692 -0.000136723 0)
(0.206403 -7.42087e-05 0)
(0.00477794 -0.0337014 0)
(0.00509087 -0.0307095 0)
(-0.0123014 -0.00544735 0)
(-0.0670379 0.0309514 0)
(-0.152904 0.0481765 0)
(-0.236778 0.0469994 0)
(-0.305847 0.0392537 0)
(-0.355941 0.0299606 0)
(-0.384491 0.0199901 0)
(-0.392145 0.00983108 0)
(-0.380823 -0.00161889 0)
(-0.351128 -0.0123545 0)
(-0.305011 -0.0216658 0)
(-0.245433 -0.0286634 0)
(-0.176902 -0.0327413 0)
(-0.1037 -0.034203 0)
(-0.0295986 -0.0338221 0)
(0.0424462 -0.0317225 0)
(0.109861 -0.0276897 0)
(0.169886 -0.0226054 0)
(0.221054 -0.0172196 0)
(0.262976 -0.0115895 0)
(0.294911 -0.00444828 0)
(0.314979 0.00572363 0)
(0.321125 0.0174595 0)
(0.313068 0.0252868 0)
(0.293205 0.0240998 0)
(0.266693 0.0162889 0)
(0.239732 0.00757824 0)
(0.216874 0.00153189 0)
(0.20028 -0.0014021 0)
(0.190153 -0.00239746 0)
(0.185485 -0.00256583 0)
(0.184784 -0.00250446 0)
(0.186537 -0.0023555 0)
(0.189471 -0.00205668 0)
(0.192727 -0.00168429 0)
(0.195786 -0.00131549 0)
(0.198393 -0.000983806 0)
(0.200485 -0.000708932 0)
(0.202083 -0.000493975 0)
(0.203267 -0.000336503 0)
(0.204128 -0.000219488 0)
(0.204697 -0.000146052 0)
(0.205252 -7.71812e-05 0)
(-0.00686626 0.0258548 0)
(-0.0475111 0.0512099 0)
(-0.108439 0.0843144 0)
(-0.159467 0.108958 0)
(-0.206582 0.112466 0)
(-0.23854 0.0987788 0)
(-0.260237 0.0750225 0)
(-0.266551 0.0479638 0)
(-0.25837 0.0180846 0)
(-0.237527 -0.0118636 0)
(-0.201642 -0.0413323 0)
(-0.151894 -0.0680618 0)
(-0.0895962 -0.0903949 0)
(-0.017664 -0.106643 0)
(0.0613022 -0.11593 0)
(0.141929 -0.118571 0)
(0.219847 -0.116334 0)
(0.29356 -0.110117 0)
(0.361432 -0.0997628 0)
(0.420343 -0.0867268 0)
(0.468743 -0.0730361 0)
(0.507487 -0.0587692 0)
(0.537477 -0.0438738 0)
(0.558531 -0.0295012 0)
(0.573084 -0.0150345 0)
(0.584454 0.00237336 0)
(0.592918 0.0217417 0)
(0.594347 0.0375859 0)
(0.582916 0.0439218 0)
(0.558771 0.0395444 0)
(0.528737 0.0287839 0)
(0.500748 0.0169595 0)
(0.479424 0.00732414 0)
(0.465666 0.000784448 0)
(0.458456 -0.00296758 0)
(0.455848 -0.00463926 0)
(0.455884 -0.00494836 0)
(0.457203 -0.00452545 0)
(0.458983 -0.00379139 0)
(0.460767 -0.00300689 0)
(0.462363 -0.00227128 0)
(0.463646 -0.00168783 0)
(0.464745 -0.00117468 0)
(0.465412 -0.000872642 0)
(0.466268 -0.000497787 0)
(-0.0308622 0.0104073 0)
(-0.0598352 0.064204 0)
(-0.0604738 0.0933515 0)
(-0.0537352 0.115149 0)
(-0.0401498 0.117594 0)
(-0.0200796 0.0982211 0)
(0.00177761 0.0660809 0)
(0.0255649 0.0302721 0)
(0.0585044 -0.00643784 0)
(0.0997982 -0.0454015 0)
(0.152211 -0.0856234 0)
(0.211435 -0.123303 0)
(0.277144 -0.15528 0)
(0.345682 -0.178675 0)
(0.413732 -0.191198 0)
(0.479672 -0.193009 0)
(0.541699 -0.186644 0)
(0.596914 -0.174411 0)
(0.644067 -0.155786 0)
(0.682978 -0.13099 0)
(0.711962 -0.105583 0)
(0.730399 -0.0831217 0)
(0.740864 -0.0596517 0)
(0.744568 -0.0335126 0)
(0.740991 -0.0107688 0)
(0.733177 0.00411312 0)
(0.727424 0.0158316 0)
(0.725894 0.0302417 0)
(0.723786 0.0461665 0)
(0.714627 0.0568765 0)
(0.696163 0.0569548 0)
(0.67134 0.0470586 0)
(0.645442 0.032304 0)
(0.622864 0.0180063 0)
(0.605642 0.0071939 0)
(0.593791 0.000396801 0)
(0.586362 -0.00313632 0)
(0.582105 -0.0044869 0)
(0.579942 -0.00456942 0)
(0.579048 -0.00410313 0)
(0.578899 -0.00338452 0)
(0.579061 -0.00273257 0)
(0.57948 -0.00201691 0)
(0.579753 -0.0016106 0)
(0.580319 -0.000976982 0)
(-0.0245353 0.140708 0)
(-0.00546347 0.0996387 0)
(0.0264236 0.0958631 0)
(0.0732893 0.0998981 0)
(0.127859 0.0943609 0)
(0.185825 0.0740444 0)
(0.24435 0.0422233 0)
(0.300106 0.00018428 0)
(0.35813 -0.0474187 0)
(0.419356 -0.0957284 0)
(0.481574 -0.142706 0)
(0.5428 -0.186054 0)
(0.603242 -0.219794 0)
(0.662171 -0.24189 0)
(0.715971 -0.253881 0)
(0.761577 -0.252369 0)
(0.800331 -0.238868 0)
(0.832612 -0.217731 0)
(0.855906 -0.19004 0)
(0.870572 -0.156779 0)
(0.877951 -0.12072 0)
(0.877186 -0.0866895 0)
(0.869802 -0.0573479 0)
(0.85866 -0.0298207 0)
(0.843911 -0.00384634 0)
(0.825006 0.0147851 0)
(0.805649 0.026158 0)
(0.790761 0.0372164 0)
(0.780857 0.0518775 0)
(0.771708 0.0662474 0)
(0.75883 0.0732714 0)
(0.74082 0.069681 0)
(0.718964 0.0575804 0)
(0.695935 0.0418388 0)
(0.674539 0.0268732 0)
(0.656649 0.0151228 0)
(0.642934 0.00709408 0)
(0.63317 0.00218107 0)
(0.626621 -0.000468416 0)
(0.622462 -0.00174605 0)
(0.620013 -0.00212058 0)
(0.618654 -0.00214568 0)
(0.618025 -0.00180164 0)
(0.617725 -0.00160658 0)
(0.61771 -0.00105668 0)
(0.0815811 0.00181896 0)
(0.119511 -0.00587874 0)
(0.209303 -0.00411951 0)
(0.28433 -0.00397401 0)
(0.361896 -0.0112788 0)
(0.443039 -0.0293613 0)
(0.522435 -0.0563355 0)
(0.597766 -0.0914329 0)
(0.668407 -0.13225 0)
(0.734028 -0.175179 0)
(0.795339 -0.21523 0)
(0.849074 -0.252451 0)
(0.892703 -0.281551 0)
(0.927541 -0.294549 0)
(0.953093 -0.296728 0)
(0.968762 -0.287051 0)
(0.973808 -0.264459 0)
(0.971959 -0.236257 0)
(0.966503 -0.201034 0)
(0.953517 -0.157675 0)
(0.934466 -0.114529 0)
(0.912706 -0.0762666 0)
(0.887502 -0.0402072 0)
(0.861319 -0.0056611 0)
(0.834777 0.0229122 0)
(0.808364 0.0407775 0)
(0.784988 0.0490887 0)
(0.766037 0.0550311 0)
(0.751747 0.0645431 0)
(0.741069 0.0764237 0)
(0.731652 0.0847818 0)
(0.721136 0.0847935 0)
(0.708376 0.0760821 0)
(0.693778 0.0618595 0)
(0.678727 0.0461486 0)
(0.664769 0.0318416 0)
(0.653032 0.0203542 0)
(0.643974 0.0118889 0)
(0.637485 0.00613991 0)
(0.633141 0.00246379 0)
(0.630413 0.000391055 0)
(0.628784 -0.000747482 0)
(0.627879 -0.00108106 0)
(0.627427 -0.00125939 0)
(0.627175 -0.000953865 0)
)
;

boundaryField
{
    inlet
    {
        type            fixedValue;
        value           uniform (1 0 0);
    }
    outlet
    {
        type            zeroGradient;
    }
    upperWall
    {
        type            noSlip;
    }
    lowerWall
    {
        type            noSlip;
    }
    frontAndBack
    {
        type            empty;
    }
}


// ************************************************************************* //
