/*--------------------------------*- C++ -*----------------------------------*\
  =========                 |
  \\      /  F ield         | OpenFOAM: The Open Source CFD Toolbox
   \\    /   O peration     | Website:  https://openfoam.org
    \\  /    A nd           | Version:  10
     \\/     M anipulation  |
\*---------------------------------------------------------------------------*/
FoamFile
{
    format      ascii;
    class       surfaceScalarField;
    location    "3.45";
    object      phi;
}
// * * * * * * * * * * * * * * * * * * * * * * * * * * * * * * * * * * * * * //

dimensions      [0 3 -1 0 0 0 0];

internalField   nonuniform List<scalar> 
928
(
0.0959701
0.00402988
0.103295
-0.00732509
0.106836
-0.00354093
-0.00921004
0.116046
0.0947263
0.00930358
0.105765
-0.0183633
0.102464
-0.000240503
-0.0190609
0.112315
0.0954422
0.0138614
0.109043
-0.031964
0.103322
0.00548052
-0.0408108
0.125072
0.103349
0.0105124
0.0934583
-0.0220733
0.0986706
0.000268213
0.146602
-0.0887427
0.110912
0.00513397
-0.0160735
0.126986
0.108578
0.00887077
-0.0408308
0.133335
0.125798
0.00814454
-0.0464905
0.131458
0.154747
0.108256
0.126508
0.000477457
0.126862
-0.000354195
0.128187
-0.00132409
-0.00243648
0.130623
0.134194
-0.000381201
0.13332
0.00051949
0.13365
-0.00165414
-0.00526004
0.136474
0.132846
-0.00176965
0.132982
0.000384013
0.137482
-0.00615422
-0.00559465
0.137816
0.113286
-0.00679893
0.0876486
0.0260212
0.0868217
-0.00532732
0.0930848
-0.0118578
0.132276
-0.00165342
0.13355
-0.00127358
0.133092
0.000458448
0.13225
0.000841629
0.130924
0.00132548
0.129907
0.00101712
0.129091
0.000816431
0.128025
0.00106606
0.12735
0.000675253
0.126027
0.00132269
0.125337
0.000690315
0.124056
0.001281
0.123375
0.000681029
0.122375
0.000999604
0.121746
0.000629395
0.121131
0.000614234
0.120493
0.000638067
0.119773
0.0007204
0.118497
0.00127615
0.117027
0.00146943
0.11482
0.00220725
0.112598
0.0022221
0.110372
0.00222599
0.108736
0.0016364
0.107572
0.00116388
0.107269
0.000303167
0.107366
-9.70885e-05
0.10837
-0.00100454
0.108918
-0.000547956
0.109421
-0.000502653
0.109018
0.000402371
0.107611
0.00140785
0.105653
0.00195798
0.102045
0.00360786
0.0994499
0.00259485
0.0958736
0.00357623
0.0946034
0.00127019
0.0940078
0.000595614
0.0952402
-0.00123239
-0.00274989
0.138249
-0.00342803
0.138722
-0.00174649
0.138165
0.0010154
0.137964
0.00104267
0.137722
0.00156677
0.13796
0.000779782
0.137457
0.00131853
0.136448
0.00207596
0.135767
0.00135534
0.134851
0.00223885
0.134597
0.000944411
0.13349
0.00238871
0.133415
0.000755431
0.13261
0.00180485
0.132806
0.000433619
0.132572
0.000847403
0.132642
0.000568926
0.132318
0.00104389
0.131521
0.00207285
0.13038
0.00261049
0.128727
0.00386029
0.127396
0.00355325
0.125126
0.00449623
0.123894
0.00286858
0.122307
0.00275069
0.122417
0.000193525
0.122555
-0.000235549
0.123943
-0.00239276
0.125084
-0.00168845
0.126184
-0.00160243
0.126962
-0.000376289
0.12591
0.00245998
0.125273
0.00259455
0.122569
0.00631224
0.120788
0.00437614
0.117801
0.00656346
0.115672
0.0033983
0.114585
0.00168265
0.114466
-0.0011131
-0.00484063
0.135822
-0.00143398
0.134488
-0.000411969
0.134418
0.00108504
0.136249
-0.000787789
0.137895
-7.92797e-05
0.136203
0.0024716
0.135178
0.0023433
0.135725
0.00152892
0.135528
0.00155254
0.135574
0.00219231
0.134286
0.00223327
0.134241
0.0024333
0.133662
0.00133405
0.133919
0.00154852
0.133892
0.000460338
0.13392
0.000819725
0.134506
-1.78492e-05
0.134472
0.0010778
0.134952
0.00159285
0.134704
0.00285939
0.134246
0.00431763
0.132776
0.0050235
0.131548
0.00572432
0.130575
0.00384172
0.129596
0.0037299
0.128561
0.00122825
0.127608
0.000717436
0.127251
-0.00203554
0.12769
-0.00212807
0.128853
-0.00276529
0.130904
-0.0024275
0.132821
0.000543696
0.134567
0.0008478
0.135168
0.00571208
0.134083
0.00546049
0.132488
0.00815905
0.130563
0.00532268
0.129019
0.00322648
0.126776
0.00113024
-0.00323111
0.0911639
0.000486886
0.0902199
0.000532032
0.0880788
0.00322622
0.0936591
-0.00636812
0.0961675
-0.00258772
0.0884139
0.0102252
0.0903566
0.000400642
0.0922719
-0.000386442
0.0929282
0.00089628
0.0920783
0.00304217
0.0919537
0.00235792
0.0923691
0.0020179
0.0921163
0.00158685
0.0921692
0.00149564
0.0915435
0.001086
0.0920365
0.000326754
0.0928305
-0.000811851
0.0941269
-0.000218601
0.0961779
-0.000458166
0.0995572
-0.000519947
0.101487
0.00238831
0.101841
0.00466908
0.101232
0.00633319
0.0971696
0.00790417
0.0924882
0.0084113
0.0871132
0.00660328
0.083805
0.00402559
0.0807895
0.000980043
0.08183
-0.00316859
0.0844823
-0.00541756
0.0890879
-0.00703314
0.0953825
-0.00575085
0.101631
-0.00540071
0.108812
-0.00146938
0.11288
0.00139292
0.116458
0.00458093
0.115392
0.00638917
0.109739
0.00887883
0.101945
0.00892424
0.00212495
0.110866
-0.000353474
0.0883817
0.000410853
0.0892659
-0.000615924
0.000523159
0.110131
-0.0104846
0.0880416
0.0225004
0.0877307
-0.000305048
0.0882539
0.0054194
-0.0122183
0.00203505
0.0294055
-0.00822574
0.00493348
-0.0382975
0.018214
-0.000712543
-0.0115058
0.0158296
0.0128633
0.0200795
0.000683587
-0.0147602
-0.00345781
0.00999223
0.00870863
0.0117757
-0.00125143
0.00354922
0.0114527
0.00827894
-0.0110978
0.00787267
-0.00218145
0.00367714
0.0144208
-0.000667477
0.00474526
0.00225215
-0.00330607
0.00687722
-0.00372879
0.00954279
0.0003766
0.0103773
0.00152342
0.0107592
0.00163601
0.0118754
0.00047059
0.0125201
0.000851017
0.014078
-0.000471911
0.0159947
-0.00159004
0.018238
-0.0030551
0.02108
-0.00306063
0.0236113
-0.00298945
0.0258091
-0.00271778
0.027872
0.000325504
0.0296592
0.00288181
0.0302135
0.00577895
0.0306626
0.00745503
0.0312289
0.00784498
0.0316041
0.00622805
0.0333234
0.00230638
0.035236
-0.0009326
0.036987
-0.00491961
0.0404639
-0.00889446
0.0432397
-0.00980897
0.047703
-0.0102141
0.0504419
-0.00813967
0.0526906
-0.00371809
0.0543795
-0.000296003
0.0530292
0.00593127
0.0513154
0.00810297
0.048977
0.0112172
0.0468033
0.0110979
0.00241785
-0.0114162
0.00536465
-0.0128637
0.000196077
-0.00380436
0.00239338
-0.00846331
-0.00643889
-0.0111777
0.000532926
0.00420702
-0.00096393
0.00846617
0.000486105
0.00985802
-0.00469792
0.0087076
-0.00257838
0.00992512
-0.000840923
0.0124508
-0.0010023
0.0149692
-0.000882305
0.0167929
-0.00135319
0.0187225
-0.0010786
0.0202545
-0.00200389
0.0211026
-0.00243815
0.0209236
-0.00287607
0.0221693
-0.0043063
0.0237039
-0.00452408
0.0242055
-0.00321934
0.0262646
-0.00173364
0.02967
-0.00052361
0.0329252
0.00252383
0.0372059
0.00317424
0.0415003
0.00355057
0.0454017
0.00232672
0.048042
-0.000333935
0.0500956
-0.00298623
0.0505325
-0.00535654
0.048302
-0.00666393
0.0467432
-0.0082502
0.0452232
-0.00869404
0.0437882
-0.00670469
0.0439083
-0.00383812
0.0445741
-0.000961794
0.0470009
0.00350446
0.0491088
0.00599501
0.052846
0.00748007
0.0564854
0.00745851
0.00166038
0.104128
-0.0146125
0.0951695
0.0314588
0.10084
-0.0059754
0.0410901
0.148004
0.0954485
-0.010061
0.107048
0.0198589
0.102878
-0.00180526
0.0206676
0.123301
0.0944306
-0.00449166
0.105824
0.00846551
0.101653
0.00236614
0.0104351
0.111885
0.0955083
0.103974
0.10634
0.116775
0.158921
-0.010917
0.044634
0.114287
0.122895
-0.0105107
0.0419614
0.125567
0.107088
-0.00571336
0.0160881
0.132961
0.111062
0.12715
0.103455
-0.00067369
0.112404
0.00391379
0.109568
0.00351948
0.00313719
0.102973
0.126913
-0.00201997
0.131298
-0.000470628
0.131252
0.00356551
0.0038397
0.130549
0.131685
-0.000744153
0.130986
0.000229007
0.132747
0.00180403
0.00178321
0.134804
0.126406
0.126635
0.128439
0.130222
0.105901
0.00243636
0.104979
0.00111873
0.106481
0.00089111
0.100567
-0.00052462
0.100554
0.000545325
0.101188
-0.00159779
0.102643
-0.000969033
0.0993984
-0.00145292
0.0995839
-0.00276392
0.100305
-0.00156201
0.101457
-0.00215448
0.101474
-0.000898903
0.102318
-0.00219772
0.102567
-0.00132692
0.103448
-0.00288544
0.103223
-0.0022129
0.10345
-0.00310342
0.101504
-0.00236006
0.0991119
-0.00213187
0.0972634
-0.00137085
0.0955068
2.29062e-05
0.0946821
0.000301157
0.0952731
0.00193281
0.0980798
0.00036756
0.101035
0.000595452
0.106672
-0.00330991
0.110587
-0.00424906
0.115485
-0.00788447
0.117986
-0.0078578
0.119391
-0.0080687
0.117036
-0.0058948
0.111303
-0.00296195
0.105833
-0.00123463
0.0976321
0.00436316
0.0933961
0.00327421
0.0899124
0.00698813
0.0912952
0.00461221
0.0945719
0.00420335
0.099468
0.0025624
-0.00292106
0.129651
0.00333441
0.130678
9.15812e-05
0.131006
0.000563972
0.131489
-0.00100788
0.132432
-0.000397442
0.132491
-0.00165756
0.132351
-0.000828276
0.131763
-0.000865319
0.130608
-0.00160844
0.13023
-0.00118454
0.130571
-0.00249533
0.130712
-0.00103981
0.130737
-0.00222301
0.130387
-0.000977241
0.129761
-0.00225872
0.128833
-0.00128555
0.128177
-0.00244732
0.127507
-0.00168942
0.127029
-0.00165376
0.126518
-0.000860301
0.12631
0.000230905
0.12645
0.000160925
0.12726
0.00112318
0.128522
-0.00089478
0.129853
-0.000735864
0.130429
-0.00388592
0.129781
-0.00360027
0.127856
-0.00595962
0.125096
-0.0050982
0.12255
-0.00552287
0.120603
-0.0039472
0.118562
-0.000921201
0.117232
9.53679e-05
0.117305
0.00429019
0.117434
0.00314548
0.118968
0.00545362
0.120928
0.0026526
0.123318
0.00181283
0.126191
-0.000310081
-0.00378688
0.13632
0.00181827
0.135979
0.000432276
0.136333
0.000209567
0.136596
-0.00127028
0.13679
-0.000591902
0.13593
-0.000796742
0.135738
-0.000636419
0.135439
-0.000566332
0.134641
-0.000810999
0.134111
-0.000654346
0.132877
-0.00126162
0.132805
-0.00096759
0.131968
-0.00138627
0.131862
-0.000870405
0.130812
-0.00120875
0.130383
-0.00085655
0.129208
-0.00127285
0.12857
-0.00105175
0.127922
-0.0010049
0.127534
-0.000472897
0.127921
-0.000156061
0.128179
-9.69298e-05
0.129243
5.87291e-05
0.129003
-0.000654203
0.129108
-0.000841131
0.127514
-0.00229209
0.126303
-0.00238882
0.12386
-0.00351628
0.121522
-0.00276103
0.118886
-0.00288668
0.116495
-0.00155631
0.115893
-0.000319145
0.115426
0.000562453
0.11747
0.0022462
0.118803
0.00181268
0.121561
0.00269529
0.123397
0.000817317
0.12482
0.000388946
0.125833
-0.00132244
-0.00264649
0.13204
0.132472
0.132682
0.131412
0.13082
0.130023
0.129387
0.12882
0.128009
0.127355
0.126093
0.125126
0.123739
0.122869
0.12166
0.120804
0.119531
0.118479
0.117474
0.117001
0.116845
0.116748
0.116807
0.116153
0.115312
0.11302
0.110631
0.107115
0.104354
0.101467
0.0999106
0.0995914
0.100154
0.1024
0.104213
0.106908
0.107725
0.108114
0.106792
)
;

boundaryField
{
    inlet
    {
        type            calculated;
        value           nonuniform List<scalar> 10(-0.1 -0.1 -0.1 -0.1 -0.1 -0.1 -0.1 -0.1 -0.1 -0.1);
    }
    outlet
    {
        type            calculated;
        value           nonuniform List<scalar> 10(0.0979901 0.116557 0.125166 0.0965892 0.0465104 0.0572429 0.104049 0.127057 0.124692 0.104145);
    }
    obstacle
    {
        type            calculated;
        value           uniform 0;
    }
    upperWall
    {
        type            calculated;
        value           uniform 0;
    }
    lowerWall
    {
        type            calculated;
        value           uniform 0;
    }
    frontAndBack
    {
        type            empty;
        value           nonuniform List<scalar> 0();
    }
}


// ************************************************************************* //
