/*--------------------------------*- C++ -*----------------------------------*\
  =========                 |
  \\      /  F ield         | OpenFOAM: The Open Source CFD Toolbox
   \\    /   O peration     | Website:  https://openfoam.org
    \\  /    A nd           | Version:  10
     \\/     M anipulation  |
\*---------------------------------------------------------------------------*/
FoamFile
{
    format      ascii;
    class       volVectorField;
    location    "5.1";
    object      U;
}
// * * * * * * * * * * * * * * * * * * * * * * * * * * * * * * * * * * * * * //

dimensions      [0 1 -1 0 0 0 0];

internalField   nonuniform List<vector> 
475
(
(0.974735 0.016252 0)
(0.974671 0.00635031 0)
(0.95111 0.0311203 0)
(0.953643 0.00217885 0)
(0.921014 0.0294578 0)
(0.998437 0.00913732 0)
(1.01398 0.0148609 0)
(1.0255 0.014003 0)
(1.04404 0.00963542 0)
(1.05666 0.00191839 0)
(0.999645 0.000792633 0)
(1.01043 -0.00328612 0)
(1.02388 -0.0052952 0)
(1.04133 -0.00907201 0)
(1.05681 -0.0141146 0)
(1.00022 -0.00997616 0)
(1.01031 -0.0196993 0)
(1.02307 -0.0217589 0)
(1.03506 -0.02348 0)
(1.04437 -0.0248183 0)
(0.981358 -0.00989382 0)
(0.96828 -0.0189774 0)
(0.954485 -0.0216353 0)
(0.932402 -0.0226555 0)
(0.908224 -0.0222073 0)
(0.923599 -0.0151187 0)
(0.932767 -0.0329801 0)
(0.93933 -0.0443926 0)
(0.945774 -0.0511527 0)
(0.961196 -0.0609168 0)
(0.983555 -0.0801201 0)
(1.01146 -0.107529 0)
(1.03984 -0.140001 0)
(1.06281 -0.177431 0)
(1.08211 -0.215129 0)
(1.09286 -0.250441 0)
(1.09263 -0.278259 0)
(1.08475 -0.292409 0)
(1.06611 -0.296573 0)
(1.04044 -0.286185 0)
(1.00409 -0.261345 0)
(0.961481 -0.231721 0)
(0.923707 -0.192654 0)
(0.881271 -0.145136 0)
(0.834902 -0.0994902 0)
(0.79449 -0.0581457 0)
(0.754341 -0.0174817 0)
(0.710307 0.0200972 0)
(0.666618 0.0477694 0)
(0.630452 0.0641379 0)
(0.606483 0.0737581 0)
(0.595216 0.0831934 0)
(0.594015 0.0934863 0)
(0.599172 0.100277 0)
(0.606842 0.0994119 0)
(0.613978 0.0904381 0)
(0.618998 0.0759501 0)
(0.621712 0.0593884 0)
(0.622717 0.0435178 0)
(0.622776 0.029964 0)
(0.622466 0.0193426 0)
(0.62211 0.0116076 0)
(0.621832 0.00633166 0)
(0.621642 0.00299161 0)
(0.621535 0.0010037 0)
(0.621481 -2.77149e-05 0)
(0.621446 -0.00053202 0)
(0.621402 -0.000633346 0)
(0.621377 -0.000673961 0)
(0.621332 -0.000481565 0)
(1.06795 -0.00782016 0)
(1.07942 -0.0205548 0)
(1.0858 -0.0321751 0)
(1.08872 -0.04348 0)
(1.09327 -0.0585363 0)
(1.09938 -0.0784049 0)
(1.10229 -0.107311 0)
(1.10351 -0.139 0)
(1.09873 -0.176365 0)
(1.08466 -0.212094 0)
(1.06352 -0.242657 0)
(1.03113 -0.265973 0)
(0.99383 -0.272027 0)
(0.949609 -0.265454 0)
(0.896824 -0.248429 0)
(0.838653 -0.219042 0)
(0.777829 -0.182342 0)
(0.720681 -0.134424 0)
(0.665546 -0.0834225 0)
(0.611492 -0.0433183 0)
(0.559211 -0.00558044 0)
(0.507115 0.0383959 0)
(0.460964 0.0757205 0)
(0.431145 0.0922389 0)
(0.420602 0.0900503 0)
(0.424264 0.0818707 0)
(0.437147 0.077444 0)
(0.456382 0.0781425 0)
(0.479822 0.079706 0)
(0.505 0.0777265 0)
(0.52934 0.0706187 0)
(0.550883 0.0594513 0)
(0.56868 0.046466 0)
(0.58261 0.0337934 0)
(0.593037 0.022859 0)
(0.600529 0.0142898 0)
(0.605703 0.00812203 0)
(0.609135 0.00400708 0)
(0.611302 0.00149471 0)
(0.612596 9.51398e-05 0)
(0.613319 -0.000550005 0)
(0.6137 -0.000815703 0)
(0.613849 -0.00077328 0)
(0.613916 -0.000732573 0)
(0.613876 -0.000491267 0)
(1.06887 -0.0215054 0)
(1.07733 -0.0337157 0)
(1.0825 -0.0438855 0)
(1.08372 -0.0578117 0)
(1.0816 -0.0716692 0)
(1.07928 -0.0887601 0)
(1.06881 -0.112519 0)
(1.05889 -0.1362 0)
(1.03832 -0.166877 0)
(1.01147 -0.193309 0)
(0.979169 -0.217921 0)
(0.932569 -0.231616 0)
(0.884628 -0.223 0)
(0.822218 -0.205704 0)
(0.746084 -0.188247 0)
(0.67129 -0.163479 0)
(0.593077 -0.128682 0)
(0.518389 -0.0850352 0)
(0.454692 -0.0359657 0)
(0.403487 0.00785642 0)
(0.360994 0.0474654 0)
(0.331197 0.080414 0)
(0.321054 0.0961465 0)
(0.329658 0.0922127 0)
(0.348135 0.077072 0)
(0.36876 0.0620692 0)
(0.389506 0.0535253 0)
(0.411694 0.0511117 0)
(0.43642 0.0509359 0)
(0.462992 0.0492743 0)
(0.489408 0.044489 0)
(0.513562 0.0369813 0)
(0.534006 0.028206 0)
(0.550131 0.0196786 0)
(0.562046 0.0124393 0)
(0.570303 0.00693682 0)
(0.575659 0.00317532 0)
(0.578882 0.000847353 0)
(0.580658 -0.000416528 0)
(0.581518 -0.000987408 0)
(0.581815 -0.00111101 0)
(0.581841 -0.00105447 0)
(0.581687 -0.000843989 0)
(0.581572 -0.000710044 0)
(0.581311 -0.000440883 0)
(1.05133 -0.0302708 0)
(1.05053 -0.036934 0)
(1.04952 -0.0431429 0)
(1.03909 -0.052579 0)
(1.02686 -0.0601942 0)
(1.00708 -0.0731554 0)
(0.978679 -0.0859012 0)
(0.946226 -0.103115 0)
(0.894613 -0.123838 0)
(0.842317 -0.140193 0)
(0.767984 -0.163298 0)
(0.682368 -0.168177 0)
(0.605115 -0.151619 0)
(0.492487 -0.126261 0)
(0.344373 -0.0797394 0)
(0.226729 -0.0313742 0)
(0.15071 -0.00460993 0)
(0.106492 0.0116123 0)
(0.0863136 0.0291625 0)
(0.0867497 0.0464617 0)
(0.104617 0.0614475 0)
(0.135865 0.0700987 0)
(0.176088 0.0690609 0)
(0.218741 0.0598877 0)
(0.257171 0.0481404 0)
(0.288924 0.0385481 0)
(0.315671 0.0326887 0)
(0.340279 0.0296264 0)
(0.364612 0.0274291 0)
(0.38875 0.0245155 0)
(0.41147 0.0203569 0)
(0.431267 0.0153887 0)
(0.447172 0.0104192 0)
(0.458907 0.00614359 0)
(0.466822 0.00293031 0)
(0.47166 0.000810513 0)
(0.47425 -0.000415135 0)
(0.475328 -0.00099449 0)
(0.475522 -0.00115412 0)
(0.475264 -0.00109419 0)
(0.474818 -0.000920967 0)
(0.474362 -0.000734278 0)
(0.473916 -0.000532283 0)
(0.473632 -0.000406501 0)
(0.473248 -0.000234692 0)
(0.879928 -0.0251976 0)
(0.848017 -0.0255296 0)
(0.815211 -0.0295214 0)
(0.772869 -0.0316412 0)
(0.732231 -0.0346512 0)
(0.674944 -0.0416179 0)
(0.617949 -0.0433939 0)
(0.544304 -0.0565664 0)
(0.454916 -0.0601619 0)
(0.363388 -0.0740661 0)
(0.225209 -0.0912459 0)
(0.0938188 -0.0487265 0)
(0.00632167 0.0136209 0)
(-0.0443843 0.0424817 0)
(-0.0704626 0.0354769 0)
(-0.084049 0.00931647 0)
(-0.0938553 -0.0111081 0)
(-0.0994139 -0.0158044 0)
(-0.0966742 -0.0101928 0)
(-0.0820804 -0.000565536 0)
(-0.0551665 0.00769581 0)
(-0.018706 0.0118714 0)
(0.0212678 0.0122751 0)
(0.0582148 0.0102263 0)
(0.0888211 0.00756985 0)
(0.113097 0.00552192 0)
(0.132898 0.00433374 0)
(0.15015 0.00371867 0)
(0.165908 0.00323243 0)
(0.180218 0.00258589 0)
(0.192524 0.00176273 0)
(0.202211 0.000947836 0)
(0.209049 0.000286105 0)
(0.21327 -0.000161626 0)
(0.215416 -0.000404729 0)
(0.216113 -0.0004969 0)
(0.215948 -0.000509856 0)
(0.215362 -0.000463597 0)
(0.214632 -0.000386966 0)
(0.213915 -0.00030426 0)
(0.213294 -0.000226169 0)
(0.212794 -0.00016125 0)
(0.21241 -0.000108279 0)
(0.212149 -7.33432e-05 0)
(0.211888 -3.87362e-05 0)
(0.00403951 -0.0347223 0)
(0.00274499 -0.0300744 0)
(-0.017988 -0.0018173 0)
(-0.0812273 0.0356439 0)
(-0.175008 0.0519904 0)
(-0.263525 0.0493116 0)
(-0.33496 0.0401088 0)
(-0.383857 0.0295086 0)
(-0.408802 0.0180164 0)
(-0.411296 0.00660738 0)
(-0.393036 -0.0055906 0)
(-0.355186 -0.0168962 0)
(-0.30046 -0.0265255 0)
(-0.232287 -0.0332944 0)
(-0.156418 -0.0363328 0)
(-0.0767252 -0.0375771 0)
(0.00347599 -0.0369454 0)
(0.0807142 -0.0339351 0)
(0.152374 -0.0289165 0)
(0.216284 -0.0228631 0)
(0.270344 -0.0154448 0)
(0.312046 -0.00528492 0)
(0.338296 0.0078987 0)
(0.346062 0.0206854 0)
(0.33506 0.0270192 0)
(0.309862 0.023785 0)
(0.278479 0.0153112 0)
(0.248757 0.00724627 0)
(0.225338 0.00197603 0)
(0.209596 -0.000740054 0)
(0.200735 -0.00187737 0)
(0.197063 -0.00220858 0)
(0.196718 -0.00217827 0)
(0.198188 -0.00197129 0)
(0.200394 -0.00164585 0)
(0.202707 -0.00129506 0)
(0.2048 -0.000981691 0)
(0.206551 -0.000723601 0)
(0.207943 -0.000519219 0)
(0.209011 -0.000364188 0)
(0.209805 -0.000249474 0)
(0.210384 -0.000167984 0)
(0.210799 -0.000108421 0)
(0.211071 -7.17898e-05 0)
(0.211336 -3.77371e-05 0)
(-0.00870199 0.0296211 0)
(-0.0538293 0.0563202 0)
(-0.118328 0.0928252 0)
(-0.172016 0.117906 0)
(-0.221318 0.119918 0)
(-0.254087 0.102863 0)
(-0.275304 0.0755168 0)
(-0.279541 0.0448883 0)
(-0.26769 0.0114024 0)
(-0.241787 -0.0219702 0)
(-0.200713 -0.0536667 0)
(-0.144652 -0.0813495 0)
(-0.0762524 -0.10417 0)
(0.00186752 -0.1193 0)
(0.0856283 -0.126623 0)
(0.168893 -0.128459 0)
(0.2492 -0.125758 0)
(0.324767 -0.118213 0)
(0.392506 -0.10717 0)
(0.450631 -0.0934894 0)
(0.499513 -0.0767803 0)
(0.537984 -0.0583502 0)
(0.566181 -0.0392312 0)
(0.588632 -0.0171116 0)
(0.60695 0.00918927 0)
(0.616036 0.0337274 0)
(0.609591 0.047637 0)
(0.58708 0.0476637 0)
(0.555695 0.0379742 0)
(0.524774 0.025163 0)
(0.500132 0.0137514 0)
(0.483321 0.0055234 0)
(0.473275 0.000470462 0)
(0.468212 -0.00214285 0)
(0.466292 -0.0031591 0)
(0.46609 -0.00327028 0)
(0.466708 -0.0029387 0)
(0.467652 -0.00245383 0)
(0.468651 -0.00194771 0)
(0.469566 -0.00149549 0)
(0.47035 -0.001108 0)
(0.47097 -0.000814108 0)
(0.47149 -0.000562139 0)
(0.471805 -0.000416019 0)
(0.472203 -0.000237383 0)
(-0.030922 0.0169499 0)
(-0.058189 0.0726539 0)
(-0.0570561 0.102512 0)
(-0.0496061 0.12405 0)
(-0.0356009 0.124855 0)
(-0.014624 0.101283 0)
(0.00838986 0.0644818 0)
(0.0331399 0.0247827 0)
(0.0682818 -0.0154567 0)
(0.113403 -0.0584222 0)
(0.169203 -0.101495 0)
(0.231224 -0.139895 0)
(0.299681 -0.172671 0)
(0.369444 -0.19402 0)
(0.438236 -0.202065 0)
(0.503513 -0.202418 0)
(0.562526 -0.195388 0)
(0.615384 -0.178158 0)
(0.659556 -0.155496 0)
(0.691789 -0.133003 0)
(0.714292 -0.107347 0)
(0.72888 -0.0758356 0)
(0.733494 -0.0457157 0)
(0.730531 -0.0227433 0)
(0.728486 -0.00188698 0)
(0.731008 0.0227523 0)
(0.732132 0.047701 0)
(0.724329 0.0638065 0)
(0.70563 0.065705 0)
(0.67985 0.0554955 0)
(0.652838 0.0396871 0)
(0.629189 0.0242994 0)
(0.610953 0.012472 0)
(0.598162 0.0047671 0)
(0.589794 0.00038428 0)
(0.584671 -0.00177272 0)
(0.58174 -0.00259101 0)
(0.580212 -0.002688 0)
(0.579545 -0.00243596 0)
(0.579361 -0.00207017 0)
(0.579442 -0.00165874 0)
(0.579614 -0.00131403 0)
(0.579867 -0.000957242 0)
(0.580027 -0.000756033 0)
(0.580309 -0.000455146 0)
(-0.024865 0.144259 0)
(-0.000457057 0.102018 0)
(0.0353149 0.101765 0)
(0.085638 0.108203 0)
(0.142942 0.102189 0)
(0.202952 0.0780914 0)
(0.263349 0.0407867 0)
(0.319864 -0.00638461 0)
(0.379945 -0.0582168 0)
(0.442739 -0.111249 0)
(0.504644 -0.160948 0)
(0.566023 -0.20182 0)
(0.626005 -0.235878 0)
(0.681032 -0.259143 0)
(0.730806 -0.263188 0)
(0.77466 -0.256075 0)
(0.809232 -0.243012 0)
(0.83444 -0.218728 0)
(0.85262 -0.184519 0)
(0.861035 -0.148273 0)
(0.859142 -0.113363 0)
(0.85229 -0.0773609 0)
(0.84055 -0.0416793 0)
(0.822052 -0.0128771 0)
(0.801264 0.00761131 0)
(0.785385 0.0274351 0)
(0.776071 0.0507343 0)
(0.767964 0.0717899 0)
(0.755366 0.0822047 0)
(0.736731 0.0790634 0)
(0.714054 0.0658871 0)
(0.690568 0.0487034 0)
(0.669145 0.032469 0)
(0.651511 0.019668 0)
(0.638143 0.0107488 0)
(0.628667 0.00507626 0)
(0.622336 0.00173777 0)
(0.618319 -7.53408e-05 0)
(0.615893 -0.000936541 0)
(0.61451 -0.00126923 0)
(0.61379 -0.00127326 0)
(0.613446 -0.0011752 0)
(0.613338 -0.00093897 0)
(0.6133 -0.000804784 0)
(0.61337 -0.000514119 0)
(0.0816179 0.00325034 0)
(0.121222 -0.00617607 0)
(0.212176 -0.00361017 0)
(0.290058 -0.00172377 0)
(0.371155 -0.00946939 0)
(0.455796 -0.0302107 0)
(0.539134 -0.0614538 0)
(0.614878 -0.100836 0)
(0.684844 -0.143507 0)
(0.752676 -0.189107 0)
(0.811619 -0.235365 0)
(0.861468 -0.269895 0)
(0.903758 -0.292014 0)
(0.934503 -0.30662 0)
(0.953897 -0.303896 0)
(0.96214 -0.286856 0)
(0.963553 -0.264106 0)
(0.958089 -0.229392 0)
(0.942813 -0.186055 0)
(0.922334 -0.143147 0)
(0.896611 -0.0991594 0)
(0.864815 -0.0529139 0)
(0.832459 -0.0117561 0)
(0.80068 0.0168118 0)
(0.770728 0.0335878 0)
(0.747053 0.0473142 0)
(0.731336 0.0644016 0)
(0.721597 0.0823145 0)
(0.714037 0.0937796 0)
(0.70548 0.0941707 0)
(0.694502 0.0842477 0)
(0.681435 0.0682867 0)
(0.667717 0.0509443 0)
(0.654955 0.0353762 0)
(0.64427 0.0229757 0)
(0.636095 0.0139005 0)
(0.630302 0.00770016 0)
(0.626458 0.00370454 0)
(0.624055 0.00131765 0)
(0.622629 -1.71377e-05 0)
(0.621832 -0.000623388 0)
(0.621417 -0.000867805 0)
(0.621228 -0.000814363 0)
(0.621144 -0.000775168 0)
(0.621127 -0.000525308 0)
)
;

boundaryField
{
    inlet
    {
        type            fixedValue;
        value           uniform (1 0 0);
    }
    outlet
    {
        type            zeroGradient;
    }
    upperWall
    {
        type            noSlip;
    }
    lowerWall
    {
        type            noSlip;
    }
    frontAndBack
    {
        type            empty;
    }
}


// ************************************************************************* //
