/*--------------------------------*- C++ -*----------------------------------*\
  =========                 |
  \\      /  F ield         | OpenFOAM: The Open Source CFD Toolbox
   \\    /   O peration     | Website:  https://openfoam.org
    \\  /    A nd           | Version:  10
     \\/     M anipulation  |
\*---------------------------------------------------------------------------*/
FoamFile
{
    format      ascii;
    class       volScalarField;
    location    "9.7";
    object      p;
}
// * * * * * * * * * * * * * * * * * * * * * * * * * * * * * * * * * * * * * //

dimensions      [0 2 -2 0 0 0 0];

internalField   nonuniform List<scalar> 
400
(
3.82789e-08
-3.32606e-05
2.44718e-05
0.000137473
0.000314689
0.00055952
0.000877652
0.00127666
0.0017646
0.0023483
0.00303076
0.00380776
0.0046624
0.00555926
0.00643741
0.00721281
0.00778861
0.00810253
0.00818114
0.00802056
3.67255e-05
3.16951e-06
7.03265e-05
0.000187231
0.000364402
0.000606065
0.000918214
0.00130829
0.0017841
0.00235264
0.00301786
0.00377721
0.00461465
0.00550025
0.00637385
0.00714905
0.00772073
0.00801943
0.00808057
0.00790107
-3.75578e-05
-8.11667e-05
-1.56737e-05
9.60589e-05
0.000265219
0.000496129
0.00079526
0.00117098
0.00163277
0.00219042
0.002852
0.00362011
0.0044873
0.00542644
0.00637375
0.0072265
0.00784635
0.00812961
0.00812362
0.00786881
-0.00020021
-0.000250731
-0.000189916
-8.76934e-05
6.78422e-05
0.000281215
0.000559598
0.000912716
0.00135246
0.00189281
0.00254856
0.00333125
0.00424232
0.00526244
0.00632988
0.00731727
0.00802948
0.00828551
0.0081462
0.00776779
-0.000462401
-0.000518434
-0.000466153
-0.000378659
-0.000243421
-5.56831e-05
0.000192452
0.000512167
0.000918101
0.00142906
0.00206806
0.00285994
0.00382204
0.0049474
0.00618462
0.00738074
0.0082509
0.00846578
0.00809127
0.00751925
-0.00082231
-0.00088346
-0.000843539
-0.000776338
-0.000669084
-0.000517167
-0.000312545
-4.3211e-05
0.000307393
0.000762071
0.00135152
0.0021149
0.0030922
0.00430236
0.00573718
0.00723018
0.00836712
0.00852313
0.00781806
0.00692687
-0.00127269
-0.00133921
-0.00131538
-0.00127451
-0.00120421
-0.00110074
-0.000957243
-0.000762992
-0.000502102
-0.000151293
0.000323138
0.000968429
0.00184639
0.00302556
0.00454529
0.00635541
0.00790256
0.00805676
0.00710624
0.00581694
-0.00180327
-0.00187568
-0.0018714
-0.00186291
-0.0018391
-0.00179833
-0.00173696
-0.0016489
-0.00152484
-0.00134992
-0.0011006
-0.000744099
-0.000235228
0.000514143
0.00167679
0.0034712
0.00550434
0.00620469
0.00567804
0.00433578
-0.002401
-0.00247979
-0.00249753
-0.00252631
-0.00255736
-0.00259283
-0.00263507
-0.0026871
-0.00275379
-0.00284331
-0.00297107
-0.00317797
-0.00356085
-0.00418245
-0.00469041
-0.00399973
-0.00165015
0.00125799
0.00315144
0.00358888
-0.00305052
-0.00313576
-0.00317581
-0.00324379
-0.00333427
-0.00345496
-0.00361711
-0.0038378
-0.00414522
-0.00458822
-0.00525545
-0.00632454
-0.00819355
-0.0112867
-0.0152808
-0.0172373
-0.0148851
-0.00860326
-0.0020283
0.00284176
-0.00373523
-0.00382652
-0.0038857
-0.00399
-0.00413758
-0.00434344
-0.00462959
-0.0050304
-0.00560391
-0.00645304
-0.00777019
-0.00992165
-0.0136522
-0.0197958
-0.0279672
-0.0335107
-0.0316942
-0.0225655
-0.0117094
-0.00253399
-0.00443877
-0.0045343
-0.00460331
-0.00473339
-0.00492592
-0.00520365
-0.00559826
-0.0061595
-0.00697148
-0.00818179
-0.0100638
-0.0131155
-0.0182676
-0.0263594
-0.0369776
-0.0442431
-0.0432204
-0.0340204
-0.0230195
-0.0116486
-0.00515038
-0.0052488
-0.00531338
-0.00545115
-0.00566541
-0.00598631
-0.00645162
-0.00711877
-0.00808329
-0.00950717
-0.0116851
-0.0151083
-0.0207126
-0.0290289
-0.0397937
-0.0467011
-0.0462043
-0.0380936
-0.0292254
-0.0184153
-0.00585957
-0.00595012
-0.00597977
-0.00609429
-0.00629925
-0.00662809
-0.00711684
-0.00782162
-0.00883356
-0.0102976
-0.0124901
-0.015755
-0.0209425
-0.0281419
-0.0370255
-0.0423782
-0.042285
-0.0354472
-0.0299608
-0.0201087
-0.00659186
-0.00668036
-0.00664779
-0.0067119
-0.00686413
-0.00714885
-0.00760028
-0.00826696
-0.00922612
-0.010581
-0.0125547
-0.0153797
-0.0195279
-0.0249092
-0.0312768
-0.0349218
-0.0347295
-0.0288053
-0.026422
-0.0165112
-0.00743484
-0.00732323
-0.00714655
-0.00707042
-0.00714128
-0.00737468
-0.00778396
-0.00839322
-0.0092571
-0.0104527
-0.0121219
-0.0143945
-0.0174956
-0.0212242
-0.0254173
-0.0273485
-0.0269428
-0.0216601
-0.0210873
-0.00730599
-0.00787143
-0.0082501
-0.0078746
-0.00780113
-0.00771634
-0.00778997
-0.00803342
-0.0084787
-0.00917155
-0.0101618
-0.0115403
-0.0133593
-0.0157337
-0.0183678
-0.021175
-0.0221649
-0.0214153
-0.0163008
-0.0141777
0.010481
-0.0112387
-0.00865922
-0.00791987
-0.00720782
-0.00703455
-0.00712977
-0.00743983
-0.00792605
-0.00861518
-0.00952759
-0.0107559
-0.0123029
-0.0142743
-0.0162981
-0.0182899
-0.018509
-0.017046
-0.010242
-0.00134485
0.0418778
-0.00781768
-0.0107383
-0.00950271
-0.00937875
-0.00880855
-0.00849002
-0.00837564
-0.00848818
-0.00888303
-0.0095429
-0.0105822
-0.0119383
-0.0138313
-0.0158164
-0.0180316
-0.0180663
-0.0157888
-0.00218617
0.0221271
0.0986025
-0.0330624
-0.00788995
-0.00620136
-0.00533987
-0.00505785
-0.00520148
-0.00565238
-0.00622473
-0.00701069
-0.0079296
-0.00920474
-0.010654
-0.0124443
-0.013802
-0.0143916
-0.0105596
0.000418274
0.0343237
0.0995656
0.22968
)
;

boundaryField
{
    movingWall
    {
        type            zeroGradient;
    }
    fixedWalls
    {
        type            zeroGradient;
    }
    frontAndBack
    {
        type            empty;
    }
}


// ************************************************************************* //
