/*--------------------------------*- C++ -*----------------------------------*\
  =========                 |
  \\      /  F ield         | OpenFOAM: The Open Source CFD Toolbox
   \\    /   O peration     | Website:  https://openfoam.org
    \\  /    A nd           | Version:  10
     \\/     M anipulation  |
\*---------------------------------------------------------------------------*/
FoamFile
{
    format      ascii;
    class       surfaceScalarField;
    location    "4.7";
    object      phi;
}
// * * * * * * * * * * * * * * * * * * * * * * * * * * * * * * * * * * * * * //

dimensions      [0 3 -1 0 0 0 0];

internalField   nonuniform List<scalar> 
760
(
-8.53868e-06
8.53874e-06
-2.8085e-05
1.95463e-05
-5.05538e-05
2.24688e-05
-7.3029e-05
2.24752e-05
-9.46111e-05
2.15821e-05
-0.000114855
2.02443e-05
-0.000133329
1.84737e-05
-0.000149522
1.61932e-05
-0.000162837
1.33148e-05
-0.000172592
9.75452e-06
-0.000178036
5.44444e-06
-0.000178388
3.51892e-07
-0.000172878
-5.50963e-06
-0.000160892
-1.1986e-05
-0.000142082
-1.88107e-05
-0.00011654
-2.55418e-05
-8.51081e-05
-3.14318e-05
-5.00551e-05
-3.5053e-05
-1.7028e-05
-3.30271e-05
-1.7028e-05
-2.03723e-05
2.89111e-05
-5.71985e-05
5.63724e-05
-9.8066e-05
6.33363e-05
-0.000138471
6.28799e-05
-0.000176787
5.9898e-05
-0.000212087
5.55448e-05
-0.000243537
4.99235e-05
-0.000270262
4.29186e-05
-0.000291323
3.43757e-05
-0.000305714
2.4145e-05
-0.000312344
1.20744e-05
-0.00031028
-1.71198e-06
-0.000298424
-1.73654e-05
-0.000276065
-3.4345e-05
-0.00024288
-5.19962e-05
-0.000199205
-6.92165e-05
-0.000146461
-8.41761e-05
-8.81747e-05
-9.33389e-05
-3.26084e-05
-8.85933e-05
-4.96364e-05
-2.46994e-05
5.36104e-05
-6.80515e-05
9.97246e-05
-0.000115709
0.000110993
-0.000162592
0.000109763
-0.000206897
0.000104203
-0.000247593
9.6241e-05
-0.000283756
8.60868e-05
-0.000314433
7.35955e-05
-0.000338608
5.85508e-05
-0.000355195
4.0732e-05
-0.000363096
1.99751e-05
-0.000361029
-3.77867e-06
-0.000347838
-3.05565e-05
-0.000322592
-5.95911e-05
-0.000284753
-8.98353e-05
-0.000234487
-0.000119483
-0.000173222
-0.000145441
-0.000104908
-0.000161653
-3.91792e-05
-0.000154322
-8.88156e-05
-2.6405e-05
8.00155e-05
-7.28314e-05
0.000146151
-0.000123767
0.000161929
-0.000173864
0.000159859
-0.000221298
0.000151638
-0.000265057
0.00014
-0.000304236
0.000125265
-0.00033789
0.000107249
-0.000364991
8.56522e-05
-0.000384402
6.01426e-05
-0.000394868
3.04411e-05
-0.00039507
-3.57628e-06
-0.000383335
-4.22915e-05
-0.000358303
-8.46234e-05
-0.000318876
-0.000129262
-0.000264714
-0.000173644
-0.000196996
-0.00021316
-0.000120003
-0.000238646
-4.49531e-05
-0.000229371
-0.000133769
-2.77208e-05
0.000107736
-7.68077e-05
0.000195238
-0.000130704
0.000215826
-0.000183818
0.000212973
-0.000234334
0.000202154
-0.0002813
0.000186966
-0.000323875
0.00016784
-0.000361169
0.000144544
-0.000392174
0.000116657
-0.000415704
8.3673e-05
-0.000430338
4.50746e-05
-0.000434562
6.47978e-07
-0.000426113
-5.0741e-05
-0.000402975
-0.000107761
-0.000363112
-0.000169125
-0.000305176
-0.00023158
-0.000229655
-0.000288681
-0.000141168
-0.000327133
-5.326e-05
-0.000317279
-0.000187029
-2.92836e-05
0.00013702
-8.15071e-05
0.000247461
-0.000138924
0.000273243
-0.000195643
0.000269692
-0.000249867
0.000256378
-0.000300736
0.000237834
-0.000347518
0.000214622
-0.000389428
0.000186453
-0.000425533
0.000152762
-0.000454656
0.000112796
-0.000475277
6.56959e-05
-0.00048536
1.07301e-05
-0.000482434
-5.36669e-05
-0.000463211
-0.000126984
-0.000424291
-0.000208044
-0.00036265
-0.000293222
-0.000277302
-0.000374029
-0.000172857
-0.000431578
-6.6198e-05
-0.000423938
-0.000253227
-3.1229e-05
0.000168249
-8.72709e-05
0.000303503
-0.000148933
0.000334905
-0.000209957
0.000330716
-0.000268576
0.000314997
-0.000324061
0.00029332
-0.00037585
0.000266411
-0.000423338
0.000233941
-0.00046576
0.000195183
-0.000502047
0.000149083
-0.000530642
9.42915e-05
-0.00054924
2.93274e-05
-0.000554832
-4.8074e-05
-0.000542763
-0.000139053
-0.000507624
-0.000243183
-0.000443655
-0.000357191
-0.000346971
-0.000470713
-0.000220985
-0.000557564
-8.70203e-05
-0.000557903
-0.000340247
-3.35875e-05
0.000201836
-9.41819e-05
0.000364098
-0.000160818
0.000401541
-0.000226793
0.000396691
-0.000290391
0.000378594
-0.000351068
0.000353997
-0.000408507
0.00032385
-0.000462391
0.000287825
-0.000512261
0.000245054
-0.000557334
0.000194156
-0.000596231
0.000133188
-0.000626601
5.96978e-05
-0.000645013
-2.96627e-05
-0.000645303
-0.000138763
-0.000619414
-0.000269072
-0.00055737
-0.000419235
-0.000449941
-0.000578142
-0.000296417
-0.000711088
-0.000122658
-0.000731662
-0.000462905
-3.64071e-05
0.000238244
-0.000102338
0.000430028
-0.000174653
0.000473856
-0.000246122
0.000468161
-0.000315109
0.00044758
-0.00038132
0.000420208
-0.000444779
0.00038731
-0.000505591
0.000348637
-0.000563794
0.000303257
-0.000619153
0.000249515
-0.000670819
0.000184854
-0.000716752
0.00010563
-0.000753934
7.52006e-06
-0.000774496
-0.000118201
-0.000767621
-0.000275947
-0.000717407
-0.000469449
-0.000605486
-0.000690063
-0.000421238
-0.000895336
-0.000189419
-0.000963481
-0.000652324
-3.98059e-05
0.000278049
-0.00011196
0.000502182
-0.000190641
0.000552538
-0.000268012
0.000545532
-0.000342559
0.000522127
-0.000414318
0.000491968
-0.000483756
0.000456747
-0.000551547
0.000416427
-0.000618456
0.000370167
-0.000685165
0.000316223
-0.000751934
0.000251624
-0.000818003
0.000171699
-0.000880121
6.96387e-05
-0.000932674
-6.56486e-05
-0.000961392
-0.000247228
-0.000943705
-0.000487137
-0.000847707
-0.00078606
-0.000642187
-0.00110086
-0.000327209
-0.00127846
-0.000979534
-4.40326e-05
0.000322082
-0.000123499
0.000581649
-0.000209237
0.000638275
-0.000292745
0.000629039
-0.000372713
0.000602096
-0.000449598
0.000568853
-0.000524405
0.000531553
-0.000598503
0.000490526
-0.000673598
0.000445262
-0.000751655
0.00039428
-0.000834688
0.000334657
-0.000924192
0.000261202
-0.00101978
0.000165228
-0.00111914
3.37157e-05
-0.00120913
-0.000157242
-0.00126361
-0.000432659
-0.0012343
-0.000815365
-0.00104855
-0.00128661
-0.00062344
-0.00170356
-0.00160297
-4.95729e-05
0.000371655
-0.000137801
0.000669877
-0.000231302
0.000731776
-0.000320959
0.000718696
-0.000405819
0.000686957
-0.000486872
0.000649906
-0.000565731
0.000610412
-0.000644518
0.000569312
-0.000725985
0.000526729
-0.000813707
0.000482002
-0.000912228
0.000433177
-0.00102697
0.000375943
-0.00116339
0.000301653
-0.00132417
0.000194493
-0.00151089
2.94764e-05
-0.00170219
-0.000241357
-0.00183516
-0.000682397
-0.00174491
-0.00137687
-0.00115111
-0.00229736
-0.00275409
-5.73512e-05
0.000429006
-0.000156366
0.000768892
-0.000258335
0.000833745
-0.000353837
0.000814198
-0.000442558
0.000775678
-0.000526194
0.000733542
-0.000607
0.000691219
-0.00068774
0.000650052
-0.000772059
0.000611048
-0.000865048
0.000574991
-0.000974011
0.00054214
-0.00110945
0.00051138
-0.00128604
0.000478244
-0.00152284
0.000431292
-0.00183922
0.000345858
-0.00224051
0.000159938
-0.00262925
-0.000293657
-0.00264355
-0.00136257
-0.00175382
-0.00318709
-0.0045079
-6.95226e-05
0.000498529
-0.000182262
0.000881631
-0.0002928
0.000944283
-0.00039285
0.000914248
-0.000483756
0.000866584
-0.000567975
0.000817761
-0.000648073
0.000771317
-0.000727108
0.000729088
-0.000809224
0.000693164
-0.000900482
0.00066625
-0.00101039
0.000652048
-0.00115437
0.000655361
-0.00135764
0.000681513
-0.00165771
0.000731361
-0.00209887
0.000787021
-0.00267913
0.000740198
-0.00322146
0.000248667
-0.0031906
-0.00139342
-0.00199425
-0.00438345
-0.00650215
-8.46514e-05
0.00058318
-0.000214759
0.00101174
-0.000336398
0.00106592
-0.000442855
0.00102071
-0.000534756
0.000958484
-0.000616184
0.000899189
-0.000691041
0.000846173
-0.000762785
0.000800831
-0.000835017
0.000765396
-0.0009127
0.000743933
-0.00100482
0.000744166
-0.00112765
0.000778191
-0.00131158
0.000865445
-0.00160135
0.00102113
-0.00204683
0.0012325
-0.00260893
0.0013023
-0.00308898
0.000728719
-0.00295243
-0.00152997
-0.00182738
-0.0055085
-0.00832953
-0.000149007
0.000732187
-0.000291969
0.0011547
-0.000406014
0.00117997
-0.000499634
0.00111433
-0.000582661
0.00104151
-0.000658238
0.000974766
-0.000727614
0.000915549
-0.00079133
0.000864547
-0.000850438
0.000824504
-0.000906482
0.000799977
-0.000963656
0.000801339
-0.00103019
0.00084473
-0.00112647
0.000961723
-0.00127281
0.00116747
-0.0015073
0.00146699
-0.00176828
0.00156327
-0.00200338
0.000963818
-0.00197518
-0.00155817
-0.00138325
-0.00610043
-0.00971277
-9.9827e-05
0.000832014
-0.000307126
0.001362
-0.000466482
0.00133932
-0.000584916
0.00123276
-0.000672095
0.00112869
-0.000737398
0.00104007
-0.000786893
0.000965043
-0.00082342
0.000901075
-0.000847591
0.000848675
-0.000856475
0.000808861
-0.000846224
0.000791087
-0.000807526
0.000806032
-0.000737031
0.000891227
-0.000616196
0.00104663
-0.000461004
0.0013118
-0.000314692
0.00141696
-0.000266159
0.000915286
-0.000479012
-0.00134532
-0.000468964
-0.00611048
-0.0101817
-0.000389522
0.00122154
-0.000490412
0.00146289
-0.000588406
0.00143732
-0.000678799
0.00132315
-0.000726079
0.00117597
-0.000738638
0.00105263
-0.00072524
0.000951646
-0.000689004
0.000864838
-0.00063516
0.000794831
-0.000558517
0.000732218
-0.000457968
0.000690539
-0.000314527
0.000662591
-0.00010577
0.000682471
0.000197359
0.0007435
0.00064302
0.000866139
0.0011533
0.000906679
0.00166687
0.000401716
0.00155082
-0.00122926
0.000869642
-0.00542931
-0.00931209
-0.00133767
0.00255921
-0.00129339
0.00141861
-0.00105005
0.00119397
-0.000700846
0.00097395
-0.000330122
0.000805247
4.03252e-05
0.000682181
0.0003973
0.000594671
0.00073521
0.000526928
0.00105634
0.000473701
0.00136025
0.000428311
0.00165534
0.000395449
0.00195025
0.000367681
0.00227531
0.000357412
0.00265839
0.000360415
0.00318875
0.000335775
0.00382538
0.000270054
0.00438496
-0.000157862
0.00433269
-0.001177
0.00269168
-0.00378829
-0.00662041
0.00255921
0.00397782
0.00517179
0.00614574
0.00695099
0.00763317
0.00822784
0.00875477
0.00922847
0.00965678
0.0100522
0.0104199
0.0107773
0.0111377
0.0114735
0.0117436
0.0115857
0.0104087
0.00662041
)
;

boundaryField
{
    movingWall
    {
        type            calculated;
        value           uniform 0;
    }
    fixedWalls
    {
        type            calculated;
        value           uniform 0;
    }
    frontAndBack
    {
        type            empty;
        value           nonuniform List<scalar> 0();
    }
}


// ************************************************************************* //
