/*--------------------------------*- C++ -*----------------------------------*\
  =========                 |
  \\      /  F ield         | OpenFOAM: The Open Source CFD Toolbox
   \\    /   O peration     | Website:  https://openfoam.org
    \\  /    A nd           | Version:  10
     \\/     M anipulation  |
\*---------------------------------------------------------------------------*/
FoamFile
{
    format      ascii;
    class       surfaceScalarField;
    location    "2.075";
    object      phi;
}
// * * * * * * * * * * * * * * * * * * * * * * * * * * * * * * * * * * * * * //

dimensions      [0 3 -1 0 0 0 0];

internalField   nonuniform List<scalar> 
760
(
-1.39832e-05
1.39832e-05
-3.46025e-05
2.06193e-05
-5.53231e-05
2.07206e-05
-7.482e-05
1.94969e-05
-9.25573e-05
1.77373e-05
-0.000108105
1.55479e-05
-0.000121076
1.29709e-05
-0.000131124
1.00478e-05
-0.000137949
6.82495e-06
-0.000141304
3.35463e-06
-0.000141
-3.03688e-07
-0.000136917
-4.08284e-06
-0.000129027
-7.89034e-06
-0.000117403
-1.16239e-05
-0.000102239
-1.51638e-05
-8.38648e-05
-1.83742e-05
-6.27633e-05
-2.11015e-05
-3.96538e-05
-2.31095e-05
-1.6233e-05
-2.34208e-05
-1.62329e-05
-2.12825e-05
3.52657e-05
-5.08124e-05
5.01493e-05
-8.03185e-05
5.02266e-05
-0.000108024
4.7202e-05
-0.00013315
4.28632e-05
-0.000155079
3.74772e-05
-0.000173269
3.1161e-05
-0.000187248
2.40269e-05
-0.000196618
1.61949e-05
-0.000201053
7.79014e-06
-0.000200346
-1.01097e-06
-0.000194326
-1.01035e-05
-0.000182988
-1.92275e-05
-0.000166457
-2.81552e-05
-0.000145014
-3.66071e-05
-0.000119124
-4.4264e-05
-8.9463e-05
-5.07624e-05
-5.70315e-05
-5.5541e-05
-2.40671e-05
-5.63853e-05
-4.03e-05
-2.31096e-05
5.83753e-05
-5.507e-05
8.21098e-05
-8.6948e-05
8.21046e-05
-0.000116853
7.71075e-05
-0.000143963
6.99732e-05
-0.000167625
6.11388e-05
-0.000187267
5.0803e-05
-0.000202395
3.91544e-05
-0.00021259
2.63902e-05
-0.000217523
1.27231e-05
-0.000216923
-1.61133e-06
-0.000210613
-1.6413e-05
-0.00019857
-3.12708e-05
-0.000180887
-4.58379e-05
-0.000157829
-5.96653e-05
-0.000129861
-7.22315e-05
-9.76887e-05
-8.29351e-05
-6.23836e-05
-9.0846e-05
-2.63791e-05
-9.23898e-05
-6.66792e-05
-2.45865e-05
8.29617e-05
-5.86461e-05
0.000116169
-9.2597e-05
0.000116055
-0.000124441
0.000108952
-0.000153321
9.8853e-05
-0.000178562
8.63798e-05
-0.000199578
7.18189e-05
-0.000215861
5.54375e-05
-0.000226978
3.75073e-05
-0.000232569
1.83144e-05
-0.000232359
-1.82202e-06
-0.000226085
-2.26866e-05
-0.000213672
-4.36836e-05
-0.000195156
-6.4354e-05
-0.00017074
-8.40813e-05
-0.000140852
-0.00010212
-0.0001062
-0.000117587
-6.79365e-05
-0.000129109
-2.87454e-05
-0.000131581
-9.54245e-05
-2.65599e-05
0.000109522
-6.34004e-05
0.00015301
-0.000100102
0.000152757
-0.000134517
0.000143367
-0.00016574
0.000130076
-0.000193072
0.000113712
-0.000215914
9.46616e-05
-0.000233751
7.32739e-05
-0.000246134
4.98902e-05
-0.000252677
2.48578e-05
-0.00025307
-1.42903e-06
-0.000246965
-2.87921e-05
-0.000234196
-5.64525e-05
-0.000214694
-8.38557e-05
-0.000188559
-0.000110217
-0.000156137
-0.000134542
-0.00011812
-0.000155604
-7.57599e-05
-0.000171469
-3.21084e-05
-0.000175232
-0.000127533
-2.91687e-05
0.00013869
-6.96608e-05
0.000193502
-0.000109959
0.000193055
-0.000147714
0.000181121
-0.000181962
0.000164324
-0.000211982
0.000143732
-0.00023717
0.00011985
-0.000257011
9.31142e-05
-0.000271051
6.39301e-05
-0.000278878
3.26853e-05
-0.000280157
-1.50677e-07
-0.000274405
-3.45439e-05
-0.000261346
-6.95115e-05
-0.000240744
-0.000104457
-0.000212525
-0.000138435
-0.000176885
-0.000170183
-0.000134443
-0.000198046
-8.65584e-05
-0.000219354
-3.67885e-05
-0.000225002
-0.000164321
-3.24948e-05
0.000171185
-7.76201e-05
0.000238627
-0.000122447
0.000237882
-0.000164371
0.000223045
-0.000202362
0.000202315
-0.000235684
0.000177054
-0.000263744
0.00014791
-0.000286051
0.000115421
-0.00030217
8.00485e-05
-0.000311681
4.21965e-05
-0.000314176
2.34427e-06
-0.000309104
-3.9616e-05
-0.000295977
-8.26382e-05
-0.000274321
-0.000126113
-0.000243784
-0.000168972
-0.000204287
-0.000209679
-0.00015627
-0.000246063
-0.000101155
-0.000274469
-4.3181e-05
-0.000282976
-0.000207502
-3.66467e-05
0.000207832
-8.75263e-05
0.000289507
-0.00013792
0.000288276
-0.000184902
0.000270028
-0.000227374
0.000244787
-0.000264604
0.000214283
-0.000296047
0.000179353
-0.000321275
0.000140649
-0.000339907
9.86805e-05
-0.000351549
5.38381e-05
-0.000355721
6.51658e-06
-0.00035182
-4.35171e-05
-0.00033908
-9.53783e-05
-0.000316685
-0.000148508
-0.000283843
-0.000201814
-0.000240003
-0.00025352
-0.000185206
-0.00030086
-0.000120806
-0.000338869
-5.19229e-05
-0.00035186
-0.000259425
-4.17844e-05
0.000249616
-9.97325e-05
0.000347455
-0.000156863
0.000345406
-0.000209856
0.000323021
-0.000257552
0.000292483
-0.000299263
0.000255995
-0.000334548
0.000214638
-0.000363103
0.000169205
-0.000384668
0.000120245
-0.000398922
6.80915e-05
-0.000405387
1.29817e-05
-0.000403363
-4.55409e-05
-0.000391793
-0.000106948
-0.000369397
-0.000170904
-0.000334712
-0.0002365
-0.000286383
-0.000301848
-0.000223666
-0.000363577
-0.000147499
-0.000415035
-6.40956e-05
-0.000435264
-0.000323521
-4.8151e-05
0.000297767
-0.000114753
0.000414057
-0.000179962
0.000410615
-0.000239981
0.000383041
-0.000293617
0.000346119
-0.000340295
0.000302672
-0.000379765
0.000254108
-0.000411951
0.000201391
-0.000436805
0.0001451
-0.000454171
8.54573e-05
-0.000463647
2.24577e-05
-0.000464489
-4.4699e-05
-0.000455327
-0.00011611
-0.000434305
-0.000191927
-0.000399007
-0.000271797
-0.000346756
-0.0003541
-0.00027533
-0.000435003
-0.000184475
-0.000505889
-8.16397e-05
-0.000538099
-0.000405161
-5.61295e-05
0.000353897
-0.000133356
0.000491284
-0.000208202
0.00048546
-0.000276305
0.000451144
-0.000336511
0.000406325
-0.000388472
0.000354633
-0.000432267
0.000297903
-0.000468186
0.00023731
-0.000496535
0.000173449
-0.000517457
0.000106379
-0.000530746
3.57473e-05
-0.00053574
-3.97047e-05
-0.000530806
-0.000121044
-0.00051345
-0.000209283
-0.000480018
-0.000305229
-0.000425814
-0.000408304
-0.000345898
-0.000514918
-0.000237219
-0.000614569
-0.000108269
-0.000667049
-0.000513429
-6.63488e-05
0.000420246
-0.000156717
0.000581652
-0.000243019
0.000571763
-0.000320262
0.000528387
-0.000387486
0.000473548
-0.000444751
0.000411899
-0.000492665
0.000345816
-0.000532078
0.000276724
-0.000563843
0.000205213
-0.000588583
0.000131119
-0.000606483
5.36479e-05
-0.000617178
-2.90103e-05
-0.000618961
-0.000119261
-0.000608808
-0.000219437
-0.000581643
-0.000332393
-0.000529993
-0.000459954
-0.000444322
-0.000600589
-0.000315391
-0.0007435
-0.000151631
-0.00083081
-0.00066506
-7.99005e-05
0.000500146
-0.000186679
0.000688431
-0.000286546
0.000671629
-0.000373879
0.000615719
-0.000448224
0.000547893
-0.000510333
0.000474008
-0.000561616
0.0003971
-0.00060375
0.000318857
-0.00063837
0.000239833
-0.000666821
0.00015957
-0.000689931
7.67579e-05
-0.000707972
-1.09692e-05
-0.0007196
-0.000107633
-0.000721695
-0.000217342
-0.000707992
-0.000346096
-0.000667734
-0.000500212
-0.000584598
-0.000683726
-0.000436724
-0.000891373
-0.000229099
-0.00103844
-0.000894159
-9.88328e-05
0.000598979
-0.000226338
0.000815936
-0.000342024
0.000787315
-0.000440036
0.000713732
-0.000520998
0.000628855
-0.000586726
0.000539736
-0.000639826
0.000450201
-0.000683115
0.000362146
-0.000719293
0.000276011
-0.000750705
0.000190983
-0.00077913
0.000105182
-0.000805771
1.56717e-05
-0.000830694
-8.27096e-05
-0.000851559
-0.000196477
-0.000862148
-0.000335507
-0.000849007
-0.000513353
-0.000787825
-0.000744908
-0.000633773
-0.00104543
-0.00037841
-0.0012938
-0.00127257
-0.000124929
0.000723908
-0.000279193
0.000970199
-0.000413722
0.000921845
-0.000522655
0.000822665
-0.000608813
0.000715012
-0.000675805
0.000606728
-0.000728031
0.000502427
-0.000769821
0.000403936
-0.000805193
0.000311383
-0.000837745
0.000223534
-0.000870474
0.000137912
-0.000906118
5.13152e-05
-0.000947192
-4.16356e-05
-0.000993719
-0.000149951
-0.00104295
-0.000286276
-0.00108121
-0.000475091
-0.00108105
-0.000745072
-0.00095514
-0.00117133
-0.000665417
-0.00158352
-0.00193799
-0.000181436
0.000905344
-0.000361857
0.00115062
-0.000511504
0.00107149
-0.000627699
0.00093886
-0.000715479
0.000802792
-0.000779628
0.000670876
-0.000826595
0.000549394
-0.000862618
0.000439959
-0.000893348
0.000342114
-0.00092378
0.000253966
-0.000958809
0.00017294
-0.00100267
9.51728e-05
-0.00105839
1.40852e-05
-0.00113469
-7.3646e-05
-0.00123606
-0.000184908
-0.00135396
-0.000357192
-0.00147254
-0.000626494
-0.0014435
-0.00120037
-0.001143
-0.00188402
-0.00308099
-0.000193194
0.00109854
-0.000443557
0.00140098
-0.000631638
0.00125957
-0.000761125
0.00106835
-0.000845842
0.000887509
-0.000897636
0.000722671
-0.000929389
0.000581147
-0.000950692
0.000461261
-0.000968704
0.000360125
-0.000988768
0.00027403
-0.00101575
0.000199921
-0.00105531
0.000134739
-0.00111899
7.7765e-05
-0.00121716
2.4515e-05
-0.00137369
-2.83729e-05
-0.00158583
-0.000145057
-0.00187515
-0.00033717
-0.00196412
-0.0011114
-0.00158303
-0.00226511
-0.00466402
-0.000491226
0.00158976
-0.0006825
0.00159226
-0.000817249
0.00139432
-0.000904951
0.00115605
-0.000939913
0.000922471
-0.000943162
0.000725921
-0.000930736
0.000568721
-0.00091279
0.000443316
-0.000896786
0.000344122
-0.000888606
0.00026585
-0.000894926
0.000206241
-0.00092074
0.000160554
-0.00097747
0.000134495
-0.00106984
0.000116881
-0.00122618
0.000127976
-0.00142603
5.47858e-05
-0.00166037
-0.00010283
-0.00174407
-0.0010277
-0.00120477
-0.00280442
-0.00586878
-0.00118676
0.00277652
-0.00109215
0.00149765
-0.000869493
0.00117166
-0.000597996
0.000884552
-0.000330435
0.000654911
-9.03574e-05
0.000485843
0.000113307
0.000365057
0.000279029
0.000277593
0.000409891
0.00021326
0.000511337
0.000164405
0.000587493
0.000130084
0.000645693
0.000102354
0.000693187
8.70017e-05
0.000732288
7.77798e-05
0.000801861
5.84028e-05
0.000829094
2.75525e-05
0.00095537
-0.000229105
0.000820871
-0.000893197
0.000654103
-0.00263765
-0.00521468
0.00277652
0.00427417
0.00544584
0.00633039
0.0069853
0.00747114
0.0078362
0.00811379
0.00832705
0.00849146
0.00862154
0.00872389
0.00881089
0.00888867
0.00894708
0.00897463
0.00874552
0.00785233
0.00521468
)
;

boundaryField
{
    movingWall
    {
        type            calculated;
        value           uniform 0;
    }
    fixedWalls
    {
        type            calculated;
        value           uniform 0;
    }
    frontAndBack
    {
        type            empty;
        value           nonuniform List<scalar> 0();
    }
}


// ************************************************************************* //
