/*--------------------------------*- C++ -*----------------------------------*\
  =========                 |
  \\      /  F ield         | OpenFOAM: The Open Source CFD Toolbox
   \\    /   O peration     | Website:  https://openfoam.org
    \\  /    A nd           | Version:  10
     \\/     M anipulation  |
\*---------------------------------------------------------------------------*/
FoamFile
{
    format      ascii;
    class       volVectorField;
    location    "4.175";
    object      U;
}
// * * * * * * * * * * * * * * * * * * * * * * * * * * * * * * * * * * * * * //

dimensions      [0 1 -1 0 0 0 0];

internalField   nonuniform List<vector> 
400
(
(-0.000107668 0.000103665 0)
(-0.000826887 0.000321677 0)
(-0.00198635 0.000375315 0)
(-0.00307792 0.000375195 0)
(-0.00414025 0.000361247 0)
(-0.00513752 0.000340792 0)
(-0.00604625 0.000313289 0)
(-0.00684408 0.00027694 0)
(-0.00750556 0.000229964 0)
(-0.00800261 0.000170804 0)
(-0.00830533 9.83911e-05 0)
(-0.00838308 1.28398e-05 0)
(-0.00820646 -8.63399e-05 0)
(-0.00775108 -0.000196143 0)
(-0.00700199 -0.000311787 0)
(-0.00595754 -0.000425975 0)
(-0.00464076 -0.000526896 0)
(-0.00312832 -0.000591813 0)
(-0.00140937 -0.000557624 0)
(-0.000240317 -0.000254998 0)
(-0.000340303 0.000832032 0)
(-0.00175068 0.00169509 0)
(-0.00379601 0.00188947 0)
(-0.0057259 0.00186175 0)
(-0.007581 0.00176306 0)
(-0.0092993 0.00162445 0)
(-0.0108368 0.00144786 0)
(-0.0121547 0.00123017 0)
(-0.0132124 0.00096787 0)
(-0.0139679 0.000658113 0)
(-0.0143788 0.00029927 0)
(-0.0144049 -0.000108777 0)
(-0.0140087 -0.000559195 0)
(-0.0131597 -0.00103986 0)
(-0.0118437 -0.00153144 0)
(-0.0100658 -0.00200496 0)
(-0.00786922 -0.00241493 0)
(-0.00536782 -0.00267259 0)
(-0.00256178 -0.00254523 0)
(-0.000530652 -0.00138809 0)
(-0.000416007 0.00205688 0)
(-0.00206794 0.00378006 0)
(-0.0044253 0.00414597 0)
(-0.00664144 0.00406154 0)
(-0.00876524 0.00382316 0)
(-0.0107277 0.00349404 0)
(-0.0124805 0.00308146 0)
(-0.013981 0.00258269 0)
(-0.0151854 0.00199375 0)
(-0.0160488 0.00131146 0)
(-0.0165267 0.000534886 0)
(-0.0165715 -0.000333362 0)
(-0.0161377 -0.00128112 0)
(-0.0151906 -0.00228423 0)
(-0.0137083 -0.00330377 0)
(-0.0116891 -0.0042814 0)
(-0.00917372 -0.00512664 0)
(-0.00628753 -0.00566153 0)
(-0.00302648 -0.00542968 0)
(-0.000638522 -0.00314643 0)
(-0.000441807 0.00329851 0)
(-0.00220664 0.005916 0)
(-0.00472481 0.00645384 0)
(-0.00708805 0.00630902 0)
(-0.0093561 0.00593042 0)
(-0.0114581 0.00541309 0)
(-0.0133457 0.00476877 0)
(-0.0149767 0.00399439 0)
(-0.0163065 0.00308446 0)
(-0.0172882 0.00203392 0)
(-0.0178729 0.000840767 0)
(-0.0180086 -0.000490118 0)
(-0.0176386 -0.00194685 0)
(-0.0167099 -0.00349673 0)
(-0.0151826 -0.00508402 0)
(-0.0130365 -0.00662088 0)
(-0.0102983 -0.00796555 0)
(-0.00710017 -0.00883636 0)
(-0.00343262 -0.00852239 0)
(-0.000725277 -0.00502354 0)
(-0.000462717 0.00461712 0)
(-0.00233303 0.00818981 0)
(-0.0050095 0.00891019 0)
(-0.00752128 0.00870419 0)
(-0.00993957 0.00818343 0)
(-0.0121926 0.0074765 0)
(-0.0142339 0.00659975 0)
(-0.0160228 0.00554923 0)
(-0.0175151 0.0043168 0)
(-0.0186626 0.00289355 0)
(-0.0194111 0.00127293 0)
(-0.0197003 -0.000544557 0)
(-0.0194583 -0.00254827 0)
(-0.0186087 -0.00470266 0)
(-0.0170814 -0.00693964 0)
(-0.014821 -0.00914175 0)
(-0.0118234 -0.0111057 0)
(-0.00822306 -0.0124174 0)
(-0.0040059 -0.0120557 0)
(-0.000851845 -0.00718352 0)
(-0.000489351 0.00601585 0)
(-0.0024893 0.010616 0)
(-0.00535988 0.0115337 0)
(-0.00805472 0.0112677 0)
(-0.0106583 0.0106053 0)
(-0.0130985 0.00971138 0)
(-0.0153319 0.00860711 0)
(-0.0173211 0.00728715 0)
(-0.0190242 0.00573919 0)
(-0.0203927 0.00394767 0)
(-0.0213684 0.00189714 0)
(-0.0218827 -0.000422607 0)
(-0.0218442 -0.00301217 0)
(-0.0211441 -0.0058421 0)
(-0.019669 -0.00883931 0)
(-0.0173075 -0.0118588 0)
(-0.0139973 -0.0146248 0)
(-0.00985789 -0.0165493 0)
(-0.00486581 -0.016209 0)
(-0.00105179 -0.00975662 0)
(-0.000523506 0.00751364 0)
(-0.00268435 0.0132278 0)
(-0.00579312 0.0143599 0)
(-0.00871069 0.0140345 0)
(-0.011538 0.0132311 0)
(-0.014203 0.0121541 0)
(-0.0166676 0.0108305 0)
(-0.0189 0.00925308 0)
(-0.0208637 0.00740409 0)
(-0.0225131 0.00525796 0)
(-0.023789 0.00278427 0)
(-0.0246163 -4.73457e-05 0)
(-0.0248839 -0.00325314 0)
(-0.0244433 -0.00683414 0)
(-0.0231207 -0.0107278 0)
(-0.0207188 -0.0147728 0)
(-0.0170718 -0.0186126 0)
(-0.0122397 -0.0214313 0)
(-0.00617404 -0.0212488 0)
(-0.00137792 -0.0129586 0)
(-0.000565585 0.00913433 0)
(-0.00292124 0.0160661 0)
(-0.00631484 0.017431 0)
(-0.00949429 0.0170443 0)
(-0.0125814 0.0160983 0)
(-0.015505 0.0148419 0)
(-0.0182349 0.0133092 0)
(-0.020749 0.0114922 0)
(-0.0230207 0.0093666 0)
(-0.0250137 0.00689431 0)
(-0.0266746 0.00402418 0)
(-0.0279205 0.000696604 0)
(-0.0286318 -0.00314213 0)
(-0.0286229 -0.00754394 0)
(-0.0276347 -0.0124886 0)
(-0.0253467 -0.0178296 0)
(-0.0214198 -0.0231369 0)
(-0.0157537 -0.0273069 0)
(-0.00823826 -0.0275524 0)
(-0.00194555 -0.0171474 0)
(-0.000616672 0.0109033 0)
(-0.00320458 0.0191742 0)
(-0.00693211 0.0207889 0)
(-0.0104107 0.0203336 0)
(-0.0137889 0.0192392 0)
(-0.0169976 0.0178052 0)
(-0.0200184 0.0160757 0)
(-0.0228434 0.0140434 0)
(-0.0254622 0.0116785 0)
(-0.0278561 0.00892915 0)
(-0.0299871 0.0057193 0)
(-0.0317827 0.00195004 0)
(-0.0331251 -0.00249559 0)
(-0.0337956 -0.00775295 0)
(-0.0334458 -0.0138942 0)
(-0.0315899 -0.0208551 0)
(-0.0276193 -0.0281808 0)
(-0.021077 -0.0344314 0)
(-0.0117059 -0.0356583 0)
(-0.00302781 -0.0229707 0)
(-0.000679573 0.0128501 0)
(-0.00354371 0.0225997 0)
(-0.00765836 0.0244756 0)
(-0.011471 0.0239351 0)
(-0.0151646 0.0226787 0)
(-0.0186744 0.0210647 0)
(-0.0219979 0.0191508 0)
(-0.0251472 0.0169336 0)
(-0.0281359 0.014381 0)
(-0.0309738 0.0114294 0)
(-0.0336546 0.00797623 0)
(-0.0361364 0.00387267 0)
(-0.0383367 -0.00108485 0)
(-0.0400319 -0.0071283 0)
(-0.0407998 -0.0145391 0)
(-0.0399727 -0.0234478 0)
(-0.0365629 -0.0335095 0)
(-0.0294545 -0.0429634 0)
(-0.0180289 -0.0463115 0)
(-0.0053006 -0.0317229 0)
(-0.000760393 0.0150123 0)
(-0.0039567 0.0263976 0)
(-0.00851849 0.028534 0)
(-0.0126963 0.0278761 0)
(-0.0167201 0.0264318 0)
(-0.0205322 0.0246269 0)
(-0.0241511 0.0225375 0)
(-0.0276145 0.0201693 0)
(-0.030968 0.0174937 0)
(-0.0342625 0.0144425 0)
(-0.0375456 0.0108938 0)
(-0.0408464 0.00665095 0)
(-0.0441313 0.00141708 0)
(-0.0472718 -0.00519709 0)
(-0.0498792 -0.0137564 0)
(-0.0511267 -0.024788 0)
(-0.0496073 -0.038352 0)
(-0.0432015 -0.0525753 0)
(-0.0304257 -0.0603093 0)
(-0.010454 -0.0463188 0)
(-0.000871788 0.0174448 0)
(-0.0044771 0.0306362 0)
(-0.00955634 0.0330087 0)
(-0.0141249 0.0321764 0)
(-0.01848 0.0304989 0)
(-0.0225758 0.0284787 0)
(-0.0264574 0.0262145 0)
(-0.0301927 0.0237267 0)
(-0.0338648 0.0209995 0)
(-0.0375763 0.0179749 0)
(-0.0414496 0.0145335 0)
(-0.0456191 0.0104591 0)
(-0.0501989 0.0053871 0)
(-0.055258 -0.00128162 0)
(-0.0606286 -0.0104132 0)
(-0.0656305 -0.0232374 0)
(-0.0686021 -0.0406975 0)
(-0.0661713 -0.0615219 0)
(-0.0549091 -0.0782389 0)
(-0.0219982 -0.0725586 0)
(-0.00104046 0.0202313 0)
(-0.00516726 0.0354006 0)
(-0.0108464 0.0379329 0)
(-0.0158204 0.0368323 0)
(-0.0204884 0.0348559 0)
(-0.024824 0.032582 0)
(-0.0289053 0.0301304 0)
(-0.0328315 0.0275416 0)
(-0.0367219 0.0248252 0)
(-0.0407309 0.0219537 0)
(-0.0450648 0.0188431 0)
(-0.0500002 0.015309 0)
(-0.0558975 0.0109784 0)
(-0.063184 0.00513818 0)
(-0.0723432 -0.00340197 0)
(-0.0834798 -0.0165114 0)
(-0.0951347 -0.0367661 0)
(-0.1023 -0.0658977 0)
(-0.0956869 -0.100486 0)
(-0.0399706 -0.12213 0)
(-0.00132387 0.0235141 0)
(-0.00616129 0.0409024 0)
(-0.0125237 0.0435038 0)
(-0.0178765 0.0420112 0)
(-0.0228036 0.0395866 0)
(-0.0273085 0.0369341 0)
(-0.0314998 0.0342202 0)
(-0.0354995 0.0315093 0)
(-0.0394539 0.0288372 0)
(-0.043559 0.0262276 0)
(-0.0480956 0.0236904 0)
(-0.0534912 0.0211817 0)
(-0.0604109 0.0185057 0)
(-0.0698469 0.0151126 0)
(-0.0831922 0.00978417 0)
(-0.102155 -5.5327e-05 0)
(-0.126063 -0.0201314 0)
(-0.145186 -0.0618223 0)
(-0.139533 -0.133258 0)
(-0.048485 -0.209505 0)
(-0.00173061 0.0276782 0)
(-0.00738803 0.0465028 0)
(-0.0146573 0.0486801 0)
(-0.0204473 0.0464518 0)
(-0.0256326 0.0436445 0)
(-0.0301931 0.0408131 0)
(-0.0343275 0.0380276 0)
(-0.0382072 0.0353179 0)
(-0.0419868 0.0327474 0)
(-0.0458449 0.030418 0)
(-0.0500531 0.0284877 0)
(-0.0550935 0.0271605 0)
(-0.0618442 0.0266592 0)
(-0.0718176 0.0270031 0)
(-0.0875706 0.0275226 0)
(-0.112365 0.0243886 0)
(-0.145215 0.00583008 0)
(-0.166507 -0.0595448 0)
(-0.153911 -0.191419 0)
(-0.0354222 -0.323787 0)
(-0.00368473 0.0315407 0)
(-0.0113466 0.0557641 0)
(-0.0182242 0.0576148 0)
(-0.0237451 0.0549068 0)
(-0.0285512 0.0509375 0)
(-0.0329492 0.0469682 0)
(-0.0369816 0.0432536 0)
(-0.0407143 0.0398931 0)
(-0.0442123 0.0369774 0)
(-0.0475759 0.0346493 0)
(-0.0509825 0.033205 0)
(-0.0547768 0.0331687 0)
(-0.0597024 0.0354344 0)
(-0.0670685 0.0408681 0)
(-0.0794579 0.0495931 0)
(-0.0990621 0.0540603 0)
(-0.126989 0.0351212 0)
(-0.138115 -0.0620328 0)
(-0.128231 -0.255663 0)
(-0.0218599 -0.422887 0)
(-0.0014113 0.0456159 0)
(-0.00946928 0.0585743 0)
(-0.0213671 0.0580069 0)
(-0.0275402 0.0533279 0)
(-0.0333605 0.0497372 0)
(-0.0376003 0.0465614 0)
(-0.0409478 0.0436414 0)
(-0.0436488 0.0408731 0)
(-0.0458342 0.0383579 0)
(-0.0475294 0.036247 0)
(-0.048697 0.0350062 0)
(-0.0492271 0.035277 0)
(-0.0492587 0.0385849 0)
(-0.0485325 0.0458178 0)
(-0.0492742 0.0584363 0)
(-0.0487332 0.0645487 0)
(-0.0613128 0.0449825 0)
(-0.0598285 -0.0661988 0)
(-0.0725914 -0.293633 0)
(-0.00415879 -0.492516 0)
(-0.0115801 0.0354957 0)
(-0.0254061 0.0814853 0)
(-0.0263 0.078848 0)
(-0.0338838 0.073306 0)
(-0.0372357 0.0658587 0)
(-0.0390588 0.0590602 0)
(-0.0393575 0.0530951 0)
(-0.0386431 0.0479016 0)
(-0.0371742 0.0434539 0)
(-0.0349236 0.0397021 0)
(-0.0320797 0.0368995 0)
(-0.0279134 0.0355877 0)
(-0.0228836 0.0373494 0)
(-0.0134387 0.0426662 0)
(-0.00385664 0.055274 0)
(0.0200925 0.062836 0)
(0.030175 0.0516511 0)
(0.0659473 -0.0467361 0)
(0.0233047 -0.288381 0)
(0.0462446 -0.507894 0)
(-0.0757603 0.0988685 0)
(-0.0609788 0.0620679 0)
(-0.0624075 0.0610071 0)
(-0.0420132 0.0542197 0)
(-0.0251763 0.0471797 0)
(-0.0064152 0.0417119 0)
(0.0111148 0.0375352 0)
(0.0279972 0.0337838 0)
(0.0432305 0.0307774 0)
(0.0581916 0.0276974 0)
(0.0711449 0.0255942 0)
(0.0854833 0.0234514 0)
(0.0961711 0.0231509 0)
(0.116996 0.0235348 0)
(0.124765 0.0238683 0)
(0.171658 0.0221423 0)
(0.174019 -0.00697535 0)
(0.231749 -0.0693897 0)
(0.167596 -0.261126 0)
(0.128902 -0.444998 0)
(0.120282 0.140194 0)
(0.153428 0.0863484 0)
(0.232205 0.0641476 0)
(0.287544 0.0490186 0)
(0.330402 0.0385094 0)
(0.368751 0.0308139 0)
(0.398876 0.0254317 0)
(0.429915 0.0215126 0)
(0.450479 0.0182286 0)
(0.47846 0.0162231 0)
(0.490369 0.0137242 0)
(0.519255 0.0126669 0)
(0.521536 0.0110317 0)
(0.555774 0.0101156 0)
(0.54684 0.00961627 0)
(0.585996 0.00527527 0)
(0.558009 -0.00285334 0)
(0.57277 -0.0276726 0)
(0.440518 -0.082304 0)
(0.277726 -0.158331 0)
)
;

boundaryField
{
    movingWall
    {
        type            fixedValue;
        value           uniform (1 0 0);
    }
    fixedWalls
    {
        type            noSlip;
    }
    frontAndBack
    {
        type            empty;
    }
}


// ************************************************************************* //
