/*--------------------------------*- C++ -*----------------------------------*\
  =========                 |
  \\      /  F ield         | OpenFOAM: The Open Source CFD Toolbox
   \\    /   O peration     | Website:  https://openfoam.org
    \\  /    A nd           | Version:  10
     \\/     M anipulation  |
\*---------------------------------------------------------------------------*/
FoamFile
{
    format      ascii;
    class       surfaceScalarField;
    location    "7.575";
    object      phi;
}
// * * * * * * * * * * * * * * * * * * * * * * * * * * * * * * * * * * * * * //

dimensions      [0 3 -1 0 0 0 0];

internalField   nonuniform List<scalar> 
928
(
0.0962591
0.00374094
0.103087
-0.00682744
0.106898
-0.00381146
-0.00894099
0.115839
0.0949673
0.00877369
0.105561
-0.0174208
0.102797
-0.00104796
-0.0183238
0.11218
0.0954371
0.0133366
0.109219
-0.0312026
0.103143
0.00502793
-0.0397295
0.124549
0.102857
0.0104801
0.0932762
-0.0216222
0.0975948
0.000709317
0.145133
-0.0872679
0.110682
0.00515688
-0.016318
0.127
0.108952
0.00838435
-0.040748
0.133382
0.125705
0.00722825
-0.0468881
0.131845
0.152361
0.105473
0.126713
0.000287181
0.127108
-0.000394682
0.127811
-0.000703018
-0.00191123
0.129722
0.134671
-0.00100179
0.134438
-0.000160776
0.133759
-2.43526e-05
-0.00376663
0.135614
0.136353
-0.0055104
0.133118
0.00307443
0.134454
-0.00135993
-0.00696973
0.137657
0.113826
-0.0138628
0.0895343
0.0273659
0.0790058
0.00916857
0.0859231
-0.0138871
0.131673
-0.00195163
0.133271
-0.00159785
0.133522
-0.000250218
0.132891
0.000630717
0.13177
0.00112124
0.130653
0.00111634
0.129933
0.00072044
0.128588
0.00134455
0.127811
0.000777146
0.12695
0.00086082
0.126566
0.000384219
0.125813
0.000753281
0.124755
0.00105805
0.123628
0.00112656
0.121385
0.00224296
0.119142
0.00224297
0.115502
0.00364043
0.112695
0.00280703
0.109704
0.00299055
0.107888
0.0018162
0.10755
0.000337839
0.107529
2.12e-05
0.10972
-0.00219122
0.110372
-0.000651825
0.112219
-0.0018468
0.111647
0.000571404
0.110463
0.00118459
0.107077
0.00338562
0.102489
0.00458826
0.0983754
0.0041136
0.0938635
0.00451195
0.092237
0.00162651
0.0911964
0.00104058
0.0932452
-0.00204878
0.0958109
-0.00256573
0.100143
-0.00433222
0.103797
-0.0036543
0.106894
-0.00309666
0.108893
-0.00199925
0.00122157
0.138285
-0.00462228
0.139076
-0.00238881
0.138946
-0.000120716
0.138977
0.000600539
0.13901
0.00108814
0.138688
0.00143824
0.137556
0.0018523
0.136376
0.00252415
0.136128
0.00102531
0.135665
0.00132441
0.135377
0.000671951
0.135029
0.00110095
0.134642
0.00144506
0.134278
0.00149055
0.132721
0.00380047
0.130964
0.0039994
0.12816
0.00644453
0.125482
0.00548494
0.122761
0.00571145
0.120554
0.00402317
0.120158
0.000734033
0.120305
-0.000125387
0.122059
-0.00394542
0.123674
-0.00226671
0.125847
-0.00401994
0.126602
-0.000183658
0.126175
0.00161205
0.12449
0.00507037
0.12124
0.00783769
0.118028
0.00732619
0.113515
0.00902471
0.110486
0.00465531
0.108433
0.00309386
0.109095
-0.00271062
0.110538
-0.00400902
0.113471
-0.0072649
0.116876
-0.00705982
0.119379
-0.00559959
0.123235
-0.00585549
6.26653e-05
0.13542
-0.00238577
0.133561
-0.000529593
0.13553
-0.00208964
0.137358
-0.00122717
0.137477
0.000968924
0.136949
0.00196662
0.136316
0.00248532
0.13641
0.00242934
0.135295
0.00214082
0.134391
0.00222838
0.133475
0.00158812
0.133974
0.00060142
0.134965
0.000454309
0.136001
0.000454708
0.136726
0.00307516
0.135511
0.00521481
0.133838
0.00811697
0.130832
0.00849157
0.128958
0.00758546
0.127231
0.00575021
0.125151
0.00281376
0.124001
0.00102459
0.123059
-0.00300304
0.124235
-0.00344289
0.125504
-0.0052896
0.128176
-0.00285497
0.13114
-0.00135241
0.132317
0.00389357
0.132126
0.00802846
0.1283
0.0111525
0.124825
0.0124993
0.121004
0.00847699
0.118279
0.0058185
0.115434
0.000134461
0.112359
-0.000934001
0.11069
-0.00559615
0.109894
-0.00626375
0.110927
-0.00663256
0.11509
-0.010018
-0.00318286
0.0865219
-0.00298453
0.0807627
0.00522962
0.0844453
-0.00577224
0.0874877
-0.00426967
0.0863675
0.00208914
0.0843626
0.00397154
0.0874222
-0.000574219
0.0870593
0.00279216
0.0855207
0.0036795
0.0844328
0.00331621
0.0846073
0.00141365
0.08605
-0.000841323
0.0888936
-0.00238921
0.0928188
-0.00347052
0.0975793
-0.00168535
0.102079
0.000714974
0.106676
0.00352025
0.108553
0.00661435
0.106585
0.009554
0.100841
0.0114942
0.0940109
0.00964341
0.0879368
0.00709864
0.083253
0.00168074
0.0826635
-0.00285331
0.0847431
-0.00736925
0.0903904
-0.00850224
0.0971657
-0.00812774
0.105578
-0.0045182
0.112994
0.000611623
0.119144
0.00500332
0.12224
0.00940259
0.120099
0.010618
0.111762
0.0141559
0.0991177
0.0127787
0.0879081
0.0102756
0.0790822
0.00322978
0.0766872
-0.00386872
0.0774595
-0.00740492
0.083555
-0.0161135
-0.00969576
0.110856
-0.000375486
0.0882838
0.00094952
0.0892656
-0.000272446
0.00199774
0.109735
-0.0101105
0.088202
0.0224826
0.0872815
0.00064802
0.0892792
0.0126807
-0.0265435
0.0373535
0.00269313
0.0138145
0.0327075
-0.0267567
0.0266842
-0.0116687
-0.0148749
-0.0115613
0.00258577
0.0143276
0.00681858
-0.00919041
-0.00323866
0.0152461
0.00845353
0.00235487
0.0181208
-0.004947
0.00152963
0.0105698
-0.0197865
0.00553763
0.0071213
-0.005946
0.0154552
0.000284942
-0.00680516
0.00556156
-0.00248446
0.00631169
0.00292937
0.00586978
0.00375812
0.00728473
-1.30381e-06
0.0103521
-0.00390869
0.0149727
-0.0070098
0.0190998
-0.00759758
0.023408
-0.0059936
0.0270559
-0.00293287
0.0294261
0.00115004
0.0305433
0.00549708
0.0305811
0.00951622
0.0304661
0.0116092
0.0308171
0.00929243
0.0324123
0.00550341
0.0346375
-0.000544387
0.0375573
-0.00577319
0.0421167
-0.0119286
0.0475766
-0.0139622
0.0530709
-0.013622
0.0586401
-0.0100874
0.0624454
-0.00319366
0.0648204
0.00262834
0.063987
0.0102359
0.0611334
0.0134716
0.0577047
0.0175846
0.0565964
0.0138869
0.0558954
0.0109766
0.0573724
0.00175274
0.059866
-0.00636234
0.0620472
-0.00958608
0.0659188
-0.0199851
-0.0116491
-0.00679021
0.00605332
0.0067686
0.00456203
0.00476652
0.00353171
-0.00638295
-0.00863698
-0.00605889
0.00679724
0.00677914
0.00261713
0.00650287
-0.00652888
0.00502271
-0.0010043
0.00667242
0.00127966
0.0113839
-0.00095341
0.0153275
-0.00394486
0.0178569
-0.0064381
0.0175614
-0.00671435
0.0173112
-0.0073473
0.0182709
-0.00695336
0.0210529
-0.00571481
0.0236704
-0.00146753
0.0268295
0.00233803
0.0318927
0.00445302
0.0375143
0.00598758
0.0431083
0.00369848
0.0469158
0.00169588
0.0502108
-0.00383939
0.0508069
-0.00636929
0.0492977
-0.0104194
0.0473076
-0.0119721
0.0455025
-0.0118168
0.0453457
-0.0099307
0.0460716
-0.0039195
0.0487742
-7.43082e-05
0.0522615
0.00674868
0.0564802
0.00925282
0.0624765
0.0115883
0.0690667
0.00729678
0.0750011
0.00504214
0.079514
-0.00276011
0.0806461
-0.00749452
0.0793693
-0.00830924
0.073904
-0.0145198
-0.00772014
0.103826
-0.0139368
0.094879
0.0314299
0.100007
-0.00448009
0.0400885
0.149198
0.0957807
-0.0097175
0.107779
0.0194317
0.104022
-0.000722833
0.0198657
0.124245
0.0945569
-0.00427438
0.10597
0.00801848
0.102169
0.00307842
0.00990791
0.112127
0.0957256
0.103744
0.106823
0.11673
0.157993
-0.00879522
0.0427352
0.115258
0.125149
-0.00969992
0.0409492
0.126935
0.107903
-0.00547678
0.0156071
0.133246
0.111254
0.126861
0.102208
-0.00182494
0.105459
-0.000665639
0.108313
0.00396446
0.00496058
0.100114
0.127518
-0.00240804
0.12921
-0.00235752
0.130872
0.00230247
0.00508203
0.130751
0.132285
-0.00144768
0.130198
-0.000270825
0.130919
0.00158236
0.00195633
0.134044
0.125413
0.125142
0.126725
0.128681
0.101726
0.00444166
0.105113
0.00117441
0.105939
0.0027061
0.0980475
-0.00074541
0.10281
0.00203466
0.104464
0.000963133
0.0995008
-0.00156562
0.100915
-0.00241807
0.104713
-0.0025184
0.106748
-0.00298915
0.107901
-0.00509717
0.107527
-0.00606431
0.106394
-0.00558195
0.103972
-0.00492452
0.0994261
-0.00240777
0.0953468
-0.00163546
0.0921026
0.00177662
0.0919828
0.00245788
0.0933637
0.00307205
0.097132
0.00221933
0.103134
-0.00230326
0.108916
-0.00408639
0.115525
-0.0104485
0.119156
-0.00999988
0.12021
-0.0114735
0.115458
-0.00722002
0.107827
-0.00418616
0.0982013
-0.000305051
0.0895318
0.00475002
0.0846678
0.00478961
0.0832819
0.00813465
0.0876261
0.00490859
0.092751
0.00646344
0.100987
-0.000938861
0.109181
-0.00315199
0.115602
-0.00918143
0.12121
-0.0131027
0.123381
-0.0104795
0.118127
-0.00926629
-0.00170465
0.130568
0.00462412
0.130745
0.000997929
0.132294
0.00115646
0.131685
-0.000136457
0.133839
-0.000119064
0.134846
-4.3543e-05
0.133559
-0.000278919
0.132164
-0.00102276
0.132527
-0.00288148
0.132371
-0.00283341
0.131287
-0.00401301
0.129221
-0.00399796
0.12743
-0.00379112
0.126229
-0.00372391
0.125123
-0.00130182
0.124502
-0.00101365
0.124698
0.00158054
0.125922
0.00123356
0.12746
0.00153405
0.129885
-0.000205906
0.130712
-0.00312997
0.13074
-0.00411421
0.128136
-0.00784508
0.124502
-0.00636573
0.121209
-0.00818007
0.118249
-0.00426008
0.115816
-0.00175368
0.114172
0.00133924
0.113864
0.00505808
0.114206
0.00444769
0.115874
0.00646648
0.118708
0.0020742
0.12272
0.00245229
0.126149
-0.00436801
0.128027
-0.00503047
0.127022
-0.00817655
0.122593
-0.0086737
0.118664
-0.0065505
0.114276
-0.00487787
0.00211855
0.136194
0.0024739
0.136038
0.00115391
0.136621
0.000573571
0.137102
-0.000616828
0.137415
-0.000432145
0.137712
-0.000340275
0.137953
-0.00052023
0.137266
-0.000335955
0.13586
-0.00147587
0.134574
-0.00154661
0.133002
-0.00244144
0.131337
-0.00233289
0.12958
-0.00203446
0.127508
-0.0016514
0.126763
-0.00055719
0.126572
-0.000822773
0.127411
0.000742408
0.128688
-4.39448e-05
0.129738
0.000483868
0.130237
-0.000704854
0.128862
-0.00175465
0.12762
-0.00287244
0.12428
-0.0045047
0.121369
-0.00345548
0.117457
-0.00426751
0.114409
-0.00121216
0.113597
-0.000941918
0.113504
0.00143286
0.116043
0.00251895
0.118036
0.00245447
0.121352
0.00314994
0.123113
0.000313485
0.125119
0.000446033
0.12408
-0.00332834
0.122555
-0.00350622
0.119915
-0.00553565
0.115632
-0.00439072
0.111792
-0.00271095
0.108313
-0.00139919
0.00229289
0.131155
0.132309
0.132882
0.132266
0.131833
0.131493
0.130973
0.130637
0.129161
0.127614
0.125173
0.12284
0.120806
0.119154
0.118597
0.117774
0.118517
0.118473
0.118957
0.118252
0.116497
0.113625
0.10912
0.105664
0.101397
0.100185
0.0992429
0.100676
0.103195
0.105649
0.108799
0.109113
0.109559
0.10623
0.102724
0.0971884
0.0927977
0.0900867
0.0886875
)
;

boundaryField
{
    inlet
    {
        type            calculated;
        value           nonuniform List<scalar> 10(-0.1 -0.1 -0.1 -0.1 -0.1 -0.1 -0.1 -0.1 -0.1 -0.1);
    }
    outlet
    {
        type            calculated;
        value           nonuniform List<scalar> 10(0.107672 0.124394 0.118335 0.0900679 0.0678721 0.0699751 0.112112 0.110453 0.108139 0.0909804);
    }
    obstacle
    {
        type            calculated;
        value           uniform 0;
    }
    upperWall
    {
        type            calculated;
        value           uniform 0;
    }
    lowerWall
    {
        type            calculated;
        value           uniform 0;
    }
    frontAndBack
    {
        type            empty;
        value           nonuniform List<scalar> 0();
    }
}


// ************************************************************************* //
