/*--------------------------------*- C++ -*----------------------------------*\
  =========                 |
  \\      /  F ield         | OpenFOAM: The Open Source CFD Toolbox
   \\    /   O peration     | Website:  https://openfoam.org
    \\  /    A nd           | Version:  10
     \\/     M anipulation  |
\*---------------------------------------------------------------------------*/
FoamFile
{
    format      ascii;
    class       volVectorField;
    location    "5.875";
    object      U;
}
// * * * * * * * * * * * * * * * * * * * * * * * * * * * * * * * * * * * * * //

dimensions      [0 1 -1 0 0 0 0];

internalField   nonuniform List<vector> 
400
(
(-9.97239e-05 9.18779e-05 0)
(-0.000851952 0.000324643 0)
(-0.00213052 0.000402942 0)
(-0.00339774 0.000419181 0)
(-0.00466928 0.000418957 0)
(-0.005906 0.000414404 0)
(-0.00708667 0.000404754 0)
(-0.00818752 0.000385973 0)
(-0.00917573 0.000353352 0)
(-0.0100087 0.00030188 0)
(-0.0106336 0.000226716 0)
(-0.0109891 0.000124111 0)
(-0.0110068 -9.31243e-06 0)
(-0.0106179 -0.000173409 0)
(-0.00976495 -0.000361262 0)
(-0.00841467 -0.000558161 0)
(-0.00658506 -0.000735733 0)
(-0.00441199 -0.000843411 0)
(-0.00195996 -0.000784535 0)
(-0.00032597 -0.00035799 0)
(-0.000355634 0.000861738 0)
(-0.00192365 0.00184784 0)
(-0.00430726 0.0021655 0)
(-0.0066595 0.00221109 0)
(-0.00898578 0.00216448 0)
(-0.0112103 0.00207627 0)
(-0.0132845 0.00194879 0)
(-0.0151613 0.00177129 0)
(-0.0167837 0.00152973 0)
(-0.018084 0.00120899 0)
(-0.0189829 0.000794348 0)
(-0.0193933 0.000273187 0)
(-0.0192221 -0.000359781 0)
(-0.0183764 -0.0010932 0)
(-0.0167824 -0.00189675 0)
(-0.0144048 -0.00271011 0)
(-0.011288 -0.00342377 0)
(-0.0076381 -0.00384052 0)
(-0.00356974 -0.00359631 0)
(-0.000709127 -0.00191457 0)
(-0.000458231 0.00223164 0)
(-0.00237081 0.00428058 0)
(-0.00521813 0.00491591 0)
(-0.00800808 0.00497849 0)
(-0.0107521 0.0048331 0)
(-0.0133633 0.00458374 0)
(-0.0157868 0.0042402 0)
(-0.0179703 0.00378634 0)
(-0.0198522 0.00319866 0)
(-0.0213598 0.00245108 0)
(-0.0224091 0.00151797 0)
(-0.0229039 0.000378462 0)
(-0.0227332 -0.000974152 0)
(-0.0217848 -0.00252076 0)
(-0.0199643 -0.00420087 0)
(-0.0172115 -0.0058934 0)
(-0.0135553 -0.00737711 0)
(-0.00922274 -0.00824887 0)
(-0.00433858 -0.00777213 0)
(-0.00087094 -0.00436381 0)
(-0.000490032 0.00366324 0)
(-0.00254863 0.0068342 0)
(-0.00560905 0.00778976 0)
(-0.00859814 0.00786 0)
(-0.0115401 0.00760966 0)
(-0.0143475 0.00719771 0)
(-0.0169685 0.00664094 0)
(-0.0193544 0.00591744 0)
(-0.0214461 0.00499328 0)
(-0.0231719 0.00382897 0)
(-0.0244442 0.00238425 0)
(-0.0251578 0.000625742 0)
(-0.0251845 -0.00146235 0)
(-0.0243763 -0.00386716 0)
(-0.0225858 -0.00650809 0)
(-0.0196923 -0.0092073 0)
(-0.015671 -0.0116194 0)
(-0.0107546 -0.0130881 0)
(-0.00507553 -0.012416 0)
(-0.00101036 -0.00706583 0)
(-0.000501878 0.00516967 0)
(-0.00265294 0.0095346 0)
(-0.00586523 0.0108282 0)
(-0.00900252 0.0109104 0)
(-0.0121027 0.0105602 0)
(-0.0150812 0.00999536 0)
(-0.0178946 0.00924038 0)
(-0.0205024 0.0082675 0)
(-0.0228533 0.00703105 0)
(-0.02488 0.00547459 0)
(-0.0264935 0.00353593 0)
(-0.0275759 0.00115643 0)
(-0.0279756 -0.0017044 0)
(-0.0274949 -0.00505376 0)
(-0.0259065 -0.0088099 0)
(-0.0229869 -0.0127459 0)
(-0.018599 -0.0163713 0)
(-0.0129431 -0.0186987 0)
(-0.00615997 -0.0179067 0)
(-0.00122329 -0.0102666 0)
(-0.000512078 0.00673008 0)
(-0.00275591 0.0123608 0)
(-0.00612622 0.0140153 0)
(-0.0094215 0.0141194 0)
(-0.0126938 0.0136828 0)
(-0.0158642 0.0129867 0)
(-0.0189006 0.0120652 0)
(-0.0217761 0.0108852 0)
(-0.0244524 0.00938788 0)
(-0.0268737 0.00749597 0)
(-0.0289554 0.00511649 0)
(-0.0305723 0.00215035 0)
(-0.0315484 -0.0014915 0)
(-0.0316251 -0.00587194 0)
(-0.0304628 -0.0109404 0)
(-0.0276786 -0.0164451 0)
(-0.0229368 -0.0217316 0)
(-0.0163131 -0.0253746 0)
(-0.00791438 -0.0246469 0)
(-0.00159507 -0.0142422 0)
(-0.000524779 0.00834876 0)
(-0.00287659 0.0153242 0)
(-0.0064286 0.0173655 0)
(-0.00990337 0.0175029 0)
(-0.0133691 0.0169963 0)
(-0.016754 0.0161969 0)
(-0.020042 0.0151514 0)
(-0.0232251 0.013823 0)
(-0.0262865 0.0121403 0)
(-0.0291923 0.0100016 0)
(-0.0318756 0.0072746 0)
(-0.0342156 0.00379906 0)
(-0.0360276 -0.000598098 0)
(-0.0369913 -0.00605287 0)
(-0.0366265 -0.0126422 0)
(-0.0343237 -0.0201481 0)
(-0.0294179 -0.0277681 0)
(-0.0216513 -0.0335123 0)
(-0.0109359 -0.0332939 0)
(-0.00230661 -0.0195146 0)
(-0.000540289 0.0100376 0)
(-0.00301848 0.0184481 0)
(-0.00677829 0.0209025 0)
(-0.010451 0.0210821 0)
(-0.0141238 0.02052 0)
(-0.017734 0.0196465 0)
(-0.0212857 0.0185261 0)
(-0.0247968 0.0171226 0)
(-0.0282827 0.0153552 0)
(-0.0317473 0.0130994 0)
(-0.0351649 0.0101784 0)
(-0.0384515 0.00635577 0)
(-0.0414125 0.00134249 0)
(-0.0437201 -0.00515218 0)
(-0.0447807 -0.0134335 0)
(-0.0436702 -0.0234395 0)
(-0.0392355 -0.0343409 0)
(-0.0304962 -0.0435205 0)
(-0.0166566 -0.0448996 0)
(-0.00383752 -0.0271497 0)
(-0.000559317 0.0118091 0)
(-0.00318468 0.0217565 0)
(-0.00717817 0.0246471 0)
(-0.0110604 0.0248694 0)
(-0.0149413 0.0242591 0)
(-0.0187685 0.023337 0)
(-0.0225707 0.0221924 0)
(-0.026399 0.0207981 0)
(-0.0303125 0.0190726 0)
(-0.0343721 0.0168763 0)
(-0.0386227 0.0139925 0)
(-0.0430577 0.0101033 0)
(-0.0475575 0.00476909 0)
(-0.0518658 -0.00257636 0)
(-0.0553289 -0.0124722 0)
(-0.0567668 -0.0253535 0)
(-0.0544336 -0.0406805 0)
(-0.0459527 -0.0554824 0)
(-0.0284395 -0.0611237 0)
(-0.00740624 -0.0394903 0)
(-0.000584907 0.0136792 0)
(-0.00338464 0.0252759 0)
(-0.00763962 0.0286158 0)
(-0.0117352 0.0288664 0)
(-0.0158097 0.0282012 0)
(-0.0198221 0.0272446 0)
(-0.0238284 0.0261207 0)
(-0.0279189 0.0248225 0)
(-0.0322071 0.0232834 0)
(-0.0368309 0.021369 0)
(-0.0419439 0.0188455 0)
(-0.0476906 0.0153315 0)
(-0.0541488 0.0102364 0)
(-0.061191 0.00271337 0)
(-0.0684474 -0.00824111 0)
(-0.0749009 -0.0237591 0)
(-0.0781772 -0.0444528 0)
(-0.073228 -0.0683129 0)
(-0.0519718 -0.0846041 0)
(-0.0150934 -0.0615 0)
(-0.000624489 0.0156735 0)
(-0.00364 0.0290403 0)
(-0.00819114 0.032823 0)
(-0.0124966 0.0330631 0)
(-0.0167334 0.0323133 0)
(-0.0208718 0.0313159 0)
(-0.0249969 0.03024 0)
(-0.0292388 0.0291128 0)
(-0.033769 0.027904 0)
(-0.0388147 0.0265176 0)
(-0.0446707 0.0247516 0)
(-0.0517015 0.0222286 0)
(-0.0603147 0.0182901 0)
(-0.0708994 0.011883 0)
(-0.0837925 0.00146139 0)
(-0.0989187 -0.0150631 0)
(-0.113337 -0.0410474 0)
(-0.116032 -0.079578 0)
(-0.0887559 -0.119863 0)
(-0.0267315 -0.103036 0)
(-0.000693597 0.0178378 0)
(-0.00399341 0.0331027 0)
(-0.00888927 0.0372899 0)
(-0.013394 0.0374439 0)
(-0.0177429 0.0365434 0)
(-0.0219193 0.035465 0)
(-0.0260359 0.034432 0)
(-0.0302579 0.0335185 0)
(-0.0348059 0.0327562 0)
(-0.0399897 0.0321335 0)
(-0.0462518 0.0315588 0)
(-0.0542284 0.0307886 0)
(-0.0648194 0.0293081 0)
(-0.0792567 0.0261852 0)
(-0.0992285 0.0197474 0)
(-0.12608 0.00596084 0)
(-0.154575 -0.0253592 0)
(-0.162245 -0.0903849 0)
(-0.123353 -0.175116 0)
(-0.0378462 -0.173521 0)
(-0.000821932 0.0202392 0)
(-0.00451832 0.0374929 0)
(-0.00982994 0.0419621 0)
(-0.0145184 0.0418994 0)
(-0.0189119 0.0407591 0)
(-0.023008 0.0395401 0)
(-0.0269477 0.038508 0)
(-0.0309176 0.0377932 0)
(-0.0351574 0.037512 0)
(-0.040018 0.0377818 0)
(-0.0460389 0.0387129 0)
(-0.0540734 0.0403764 0)
(-0.06546 0.0427402 0)
(-0.082262 0.0454528 0)
(-0.10755 0.0467266 0)
(-0.142817 0.0379819 0)
(-0.177439 -0.00352962 0)
(-0.178546 -0.111634 0)
(-0.135099 -0.250796 0)
(-0.0468279 -0.269524 0)
(-0.0010888 0.0231257 0)
(-0.00540759 0.0426528 0)
(-0.011207 0.0473411 0)
(-0.0159956 0.0469128 0)
(-0.0203126 0.0452937 0)
(-0.0241947 0.0436854 0)
(-0.0277865 0.0424383 0)
(-0.0312568 0.0417519 0)
(-0.0348221 0.0418338 0)
(-0.0388003 0.0429615 0)
(-0.0436988 0.0455317 0)
(-0.0503637 0.0500937 0)
(-0.0601863 0.0573527 0)
(-0.0751484 0.0674253 0)
(-0.0981139 0.0771099 0)
(-0.128513 0.0704165 0)
(-0.156935 0.0134603 0)
(-0.149993 -0.134509 0)
(-0.125755 -0.314386 0)
(-0.0483419 -0.371717 0)
(-0.00146705 0.0266714 0)
(-0.00644713 0.0473855 0)
(-0.0129989 0.0515131 0)
(-0.018032 0.0502092 0)
(-0.022336 0.0481384 0)
(-0.0258763 0.0463723 0)
(-0.0288777 0.0451291 0)
(-0.0315171 0.044551 0)
(-0.03394 0.0448811 0)
(-0.0363114 0.0465257 0)
(-0.0389029 0.0501541 0)
(-0.0421669 0.0567653 0)
(-0.0469852 0.0676443 0)
(-0.0541852 0.0826744 0)
(-0.0654035 0.097125 0)
(-0.0784222 0.0889227 0)
(-0.0948279 0.0228025 0)
(-0.0865969 -0.141607 0)
(-0.0974191 -0.347495 0)
(-0.0323981 -0.459689 0)
(-0.00353021 0.0299327 0)
(-0.0107809 0.056001 0)
(-0.0167685 0.0600418 0)
(-0.0210592 0.0582568 0)
(-0.024439 0.0548411 0)
(-0.0272704 0.051741 0)
(-0.0296176 0.049335 0)
(-0.0314659 0.0478259 0)
(-0.0327464 0.0474541 0)
(-0.0333456 0.0486196 0)
(-0.0331175 0.0520703 0)
(-0.0318164 0.0589182 0)
(-0.0296117 0.070753 0)
(-0.0252561 0.0867966 0)
(-0.0208519 0.102709 0)
(-0.0111131 0.0941226 0)
(-0.0138937 0.0293223 0)
(-0.00702417 -0.127956 0)
(-0.0528118 -0.350859 0)
(-0.00907421 -0.510208 0)
(-0.00118597 0.0439342 0)
(-0.00873968 0.0584964 0)
(-0.0197174 0.0590147 0)
(-0.0244463 0.0545095 0)
(-0.0286196 0.0512594 0)
(-0.0310344 0.0488866 0)
(-0.0324203 0.0471784 0)
(-0.0328425 0.0460187 0)
(-0.032255 0.0455823 0)
(-0.030391 0.0461686 0)
(-0.0268142 0.0484948 0)
(-0.0204894 0.0532984 0)
(-0.0112203 0.0620928 0)
(0.00453849 0.0740803 0)
(0.0227543 0.0859903 0)
(0.0518615 0.07923 0)
(0.0579684 0.0251247 0)
(0.0643158 -0.100341 0)
(-0.00556793 -0.326049 0)
(0.0169434 -0.522147 0)
(-0.0123772 0.0329582 0)
(-0.0244133 0.079902 0)
(-0.0241364 0.0786896 0)
(-0.0306012 0.0735069 0)
(-0.0328105 0.0662343 0)
(-0.0332939 0.0600421 0)
(-0.0319602 0.0549017 0)
(-0.0291464 0.0507657 0)
(-0.0249694 0.0476278 0)
(-0.0191768 0.0453355 0)
(-0.0118032 0.0443032 0)
(-0.00140519 0.044732 0)
(0.0116691 0.0479903 0)
(0.031899 0.0532114 0)
(0.0531679 0.0599393 0)
(0.0890357 0.055768 0)
(0.0974695 0.0219684 0)
(0.125391 -0.0652187 0)
(0.0561956 -0.289779 0)
(0.0594794 -0.506679 0)
(-0.0771581 0.0968428 0)
(-0.0628884 0.0595469 0)
(-0.0652715 0.0599513 0)
(-0.0440245 0.0532806 0)
(-0.027001 0.0463866 0)
(-0.00734186 0.0412239 0)
(0.0111952 0.0374941 0)
(0.0298174 0.0342712 0)
(0.0469015 0.0318663 0)
(0.065032 0.0295682 0)
(0.0806015 0.0281556 0)
(0.100067 0.0270298 0)
(0.114253 0.0269192 0)
(0.14145 0.0275604 0)
(0.152918 0.025 0)
(0.200846 0.0193506 0)
(0.196523 -0.014551 0)
(0.240319 -0.080224 0)
(0.16707 -0.264129 0)
(0.12792 -0.443241 0)
(0.119797 0.140699 0)
(0.152457 0.086147 0)
(0.229484 0.0635743 0)
(0.284809 0.0481562 0)
(0.326119 0.0374761 0)
(0.364484 0.0296976 0)
(0.392994 0.0242874 0)
(0.424561 0.0202754 0)
(0.444164 0.0173857 0)
(0.472998 0.0152285 0)
(0.485713 0.0134536 0)
(0.515187 0.0124651 0)
(0.520818 0.0113205 0)
(0.554685 0.0109698 0)
(0.550036 0.00958418 0)
(0.587257 0.005843 0)
(0.558805 -0.00344126 0)
(0.568862 -0.0271109 0)
(0.431035 -0.072683 0)
(0.276719 -0.151996 0)
)
;

boundaryField
{
    movingWall
    {
        type            fixedValue;
        value           uniform (1 0 0);
    }
    fixedWalls
    {
        type            noSlip;
    }
    frontAndBack
    {
        type            empty;
    }
}


// ************************************************************************* //
