/*--------------------------------*- C++ -*----------------------------------*\
  =========                 |
  \\      /  F ield         | OpenFOAM: The Open Source CFD Toolbox
   \\    /   O peration     | Website:  https://openfoam.org
    \\  /    A nd           | Version:  10
     \\/     M anipulation  |
\*---------------------------------------------------------------------------*/
FoamFile
{
    format      ascii;
    class       volScalarField;
    location    "8";
    object      p;
}
// * * * * * * * * * * * * * * * * * * * * * * * * * * * * * * * * * * * * * //

dimensions      [0 2 -2 0 0 0 0];

internalField   nonuniform List<scalar> 
400
(
2.36288e-09
-1.38325e-05
2.82329e-05
0.000122409
0.000268484
0.000468428
0.000724973
0.00104106
0.00141895
0.00185907
0.00235855
0.00290941
0.00349664
0.00409642
0.00467521
0.00519178
0.00560319
0.00587587
0.00599577
0.0059644
1.5275e-05
1.07181e-06
4.72752e-05
0.000143093
0.000287569
0.000483782
0.000735093
0.00104477
0.00141543
0.00184795
0.00234013
0.00288481
0.00346807
0.00406726
0.00464841
0.00516908
0.0055844
0.00585993
0.00598061
0.00594149
-3.62688e-05
-5.59796e-05
-1.12157e-05
8.21407e-05
0.00022221
0.000412647
0.000657528
0.000961055
0.00132709
0.0017582
0.00225426
0.0028104
0.00341469
0.00404467
0.00466434
0.00522494
0.00567198
0.00596218
0.00607706
0.00601145
-0.000156735
-0.000181736
-0.00014082
-5.27715e-05
8.0124e-05
0.000262133
0.000498302
0.000794266
0.00115592
0.00158855
0.0020954
0.00267522
0.00331911
0.00400639
0.00469747
0.0053327
0.0058397
0.0061575
0.00626194
0.00615365
-0.000348356
-0.000377722
-0.000342146
-0.000261921
-0.000139282
3.08025e-05
0.000254582
0.000539501
0.000894086
0.00132733
0.00184736
0.00245854
0.00315692
0.003926
0.00472445
0.00547682
0.00608116
0.00644376
0.00652774
0.00634454
-0.000610917
-0.000644763
-0.000616333
-0.000546915
-0.000438588
-0.000285549
-8.03011e-05
0.000186563
0.000526568
0.000953167
0.0014809
0.00212215
0.0028823
0.00375407
0.00470093
0.00562786
0.00638657
0.00682272
0.0068678
0.00654379
-0.000942064
-0.000981159
-0.000962121
-0.000907253
-0.000818643
-0.000689965
-0.000512747
-0.000275878
3.50301e-05
0.000438046
0.000954834
0.00160941
0.0024224
0.0033991
0.00453263
0.00570921
0.00671368
0.00727911
0.00725845
0.00667327
-0.00133808
-0.00138348
-0.00137637
-0.00134045
-0.00127821
-0.0011834
-0.0010473
-0.000858044
-0.000599475
-0.000250006
0.000218701
0.000842585
0.0016595
0.00269158
0.00402444
0.00552683
0.00692459
0.00774494
0.00762737
0.00660909
-0.00179395
-0.00184675
-0.00185407
-0.00184159
-0.00181298
-0.00176299
-0.001684
-0.00156522
-0.00139127
-0.00114033
-0.000781665
-0.000272539
0.000447169
0.00146481
0.00278949
0.00458243
0.00655957
0.00791148
0.00775038
0.00628258
-0.00230334
-0.00236448
-0.00238796
-0.00240252
-0.00241408
-0.00241973
-0.00241485
-0.00239257
-0.00234266
-0.00225014
-0.00209307
-0.00184174
-0.00145947
-0.0008801
6.92762e-05
0.00170552
0.00422264
0.00655878
0.00700603
0.00597157
-0.00285896
-0.00292884
-0.00296843
-0.00301117
-0.00306673
-0.00313616
-0.00322007
-0.00331896
-0.0034337
-0.00356637
-0.0037219
-0.00391957
-0.00423257
-0.00478109
-0.00540394
-0.00511377
-0.00288191
0.000887428
0.00393109
0.00581228
-0.00345359
-0.00353162
-0.0035839
-0.00365138
-0.00374949
-0.00388488
-0.00406528
-0.00430184
-0.00461241
-0.00502782
-0.00560229
-0.00644735
-0.00784808
-0.0103286
-0.0139347
-0.0167933
-0.0162461
-0.0112417
-0.00392361
0.00339049
-0.00408227
-0.00416608
-0.00422218
-0.00430365
-0.0044347
-0.0046287
-0.00490133
-0.00527569
-0.00578967
-0.00651009
-0.00755766
-0.00916701
-0.0118643
-0.0166048
-0.0237315
-0.0310279
-0.0326845
-0.027124
-0.0166203
-0.00424277
-0.00474587
-0.00482875
-0.00487025
-0.00494481
-0.00508917
-0.00532304
-0.00566835
-0.00615807
-0.00684706
-0.00783292
-0.00929483
-0.011568
-0.0153127
-0.0216425
-0.030876
-0.0409021
-0.0446513
-0.0395994
-0.0285667
-0.0137747
-0.00546177
-0.00553197
-0.00552738
-0.00555771
-0.00568174
-0.00592375
-0.00630661
-0.00686653
-0.00766538
-0.00881319
-0.0105113
-0.0131238
-0.0172909
-0.0239687
-0.0332549
-0.0435353
-0.0479172
-0.0432654
-0.0338652
-0.0186807
-0.00626344
-0.00628181
-0.0061577
-0.00609523
-0.00616611
-0.00638434
-0.00676499
-0.00733973
-0.00816644
-0.00934788
-0.0110673
-0.0136281
-0.0176502
-0.0237584
-0.0318605
-0.0398774
-0.0433231
-0.0393001
-0.0329177
-0.0157965
-0.00719472
-0.00720585
-0.00688121
-0.00662088
-0.00656464
-0.00670633
-0.00703566
-0.00756697
-0.00834504
-0.00945221
-0.01103
-0.0133617
-0.016839
-0.0217503
-0.0278095
-0.0331342
-0.0350679
-0.0315977
-0.025084
-0.00123338
-0.00919191
-0.00832703
-0.00724617
-0.00676728
-0.00666073
-0.0067701
-0.00706003
-0.00753317
-0.00823198
-0.0092161
-0.010628
-0.0126631
-0.0155852
-0.019425
-0.0238815
-0.027239
-0.0272653
-0.0209721
-0.00625278
0.0350556
-0.0083998
-0.010352
-0.00869188
-0.00762927
-0.00715932
-0.00706231
-0.00720253
-0.00753156
-0.0081012
-0.00893943
-0.0102148
-0.0120297
-0.0146533
-0.0178608
-0.0212892
-0.022841
-0.0194369
-0.00329376
0.0340395
0.105204
-0.0260875
-0.0110821
-0.00604126
-0.00510065
-0.00506101
-0.00516264
-0.0054392
-0.00589861
-0.00663884
-0.00763489
-0.00909188
-0.0110664
-0.0137855
-0.0168847
-0.0193944
-0.0179272
-0.00620218
0.0275036
0.0967945
0.203029
)
;

boundaryField
{
    movingWall
    {
        type            zeroGradient;
    }
    fixedWalls
    {
        type            zeroGradient;
    }
    frontAndBack
    {
        type            empty;
    }
}


// ************************************************************************* //
