/*--------------------------------*- C++ -*----------------------------------*\
  =========                 |
  \\      /  F ield         | OpenFOAM: The Open Source CFD Toolbox
   \\    /   O peration     | Website:  https://openfoam.org
    \\  /    A nd           | Version:  10
     \\/     M anipulation  |
\*---------------------------------------------------------------------------*/
FoamFile
{
    format      ascii;
    class       surfaceScalarField;
    location    "8";
    object      phi;
}
// * * * * * * * * * * * * * * * * * * * * * * * * * * * * * * * * * * * * * //

dimensions      [0 3 -1 0 0 0 0];

internalField   nonuniform List<scalar> 
760
(
-1.04529e-05
1.04528e-05
-3.46182e-05
2.41653e-05
-6.41226e-05
2.95044e-05
-9.49783e-05
3.08558e-05
-0.000125938
3.09596e-05
-0.000156558
3.06202e-05
-0.000186396
2.98382e-05
-0.000214749
2.8353e-05
-0.000240552
2.58023e-05
-0.000262319
2.17679e-05
-0.000278138
1.58183e-05
-0.000285714
7.57609e-06
-0.000282537
-3.17705e-06
-0.000266271
-1.6266e-05
-0.000235451
-3.08197e-05
-0.000190342
-4.51086e-05
-0.000134013
-5.63294e-05
-7.36226e-05
-6.03904e-05
-2.23009e-05
-5.13216e-05
-2.23009e-05
-2.5923e-05
3.63757e-05
-7.41211e-05
7.23635e-05
-0.000130716
8.60994e-05
-0.000189446
8.95858e-05
-0.000247737
8.9251e-05
-0.000304313
8.71962e-05
-0.000358041
8.35662e-05
-0.00040749
7.78022e-05
-0.000450757
6.90687e-05
-0.00048538
5.63915e-05
-0.00050835
3.87875e-05
-0.000516273
1.54992e-05
-0.000505471
-1.39789e-05
-0.000472634
-4.91022e-05
-0.000415969
-8.74851e-05
-0.000336342
-0.000124735
-0.000239017
-0.000153655
-0.000135555
-0.000163852
-4.57271e-05
-0.00014115
-6.80281e-05
-3.34531e-05
6.98289e-05
-9.33258e-05
0.000132236
-0.000162504
0.000155277
-0.000233723
0.000160805
-0.000304006
0.000159534
-0.000371828
0.000155018
-0.000435859
0.000147597
-0.000494485
0.000136429
-0.000545612
0.000120195
-0.000586541
9.73209e-05
-0.000613923
6.61694e-05
-0.000623836
2.54121e-05
-0.000611834
-2.59812e-05
-0.000573658
-8.72779e-05
-0.00050647
-0.000154673
-0.00041057
-0.000220636
-0.000291937
-0.000272288
-0.000165022
-0.000290767
-5.50391e-05
-0.000251133
-0.000123067
-3.64316e-05
0.00010626
-0.00010175
0.000197555
-0.000176917
0.000230444
-0.000254119
0.000238007
-0.000330356
0.000235772
-0.000404217
0.000228879
-0.000474512
0.000217892
-0.000539781
0.000201698
-0.00059805
0.000178464
-0.00064663
0.000145902
-0.000681945
0.000101484
-0.00069947
4.29373e-05
-0.000693663
-3.17884e-05
-0.000658073
-0.000122868
-0.00058743
-0.000225315
-0.000479865
-0.000328201
-0.000341204
-0.000410949
-0.000189913
-0.000442057
-6.02572e-05
-0.000380789
-0.000183324
-3.76192e-05
0.00014388
-0.000105758
0.000265693
-0.000184332
0.000309018
-0.000265222
0.000318898
-0.000345569
0.000316118
-0.000424256
0.000307566
-0.000500457
0.000294092
-0.000573099
0.00027434
-0.000640568
0.000245933
-0.000700389
0.000205722
-0.000748846
0.00014994
-0.00078063
7.47217e-05
-0.000788935
-2.34838e-05
-0.000763554
-0.000148249
-0.000694834
-0.000294034
-0.000576128
-0.000446907
-0.000411201
-0.000575877
-0.000224078
-0.000629181
-6.54902e-05
-0.000539377
-0.000248815
-3.82308e-05
0.000182111
-0.000108332
0.000335795
-0.000189526
0.000390213
-0.000273499
0.00040287
-0.000357613
0.000400233
-0.000441182
0.000391134
-0.000523925
0.000376835
-0.000605406
0.000355821
-0.000684671
0.000325198
-0.000759812
0.000280863
-0.000827324
0.000217453
-0.000881091
0.000128489
-0.00091395
9.37489e-06
-0.0009096
-0.000152599
-0.000852079
-0.000351556
-0.000725018
-0.000573967
-0.000524736
-0.000776159
-0.000280407
-0.000873509
-7.2641e-05
-0.000747142
-0.000321456
-3.86628e-05
0.000220773
-0.000110514
0.000407646
-0.000194124
0.000473823
-0.000280992
0.000489737
-0.000368757
0.000487999
-0.000457275
0.000479652
-0.000547004
0.000466564
-0.000638437
0.000447254
-0.000731729
0.00041849
-0.000826182
0.000375316
-0.000919387
0.000310658
-0.001006
0.000215104
-0.00107491
7.82872e-05
-0.00111179
-0.000115729
-0.00108619
-0.000377155
-0.000964587
-0.000695566
-0.000722552
-0.00101819
-0.000386756
-0.00120931
-8.85083e-05
-0.00104539
-0.000409964
-3.9006e-05
0.000259779
-0.000112545
0.000481185
-0.000198416
0.000559693
-0.000287865
0.000579186
-0.000378829
0.000578963
-0.000471799
0.000572622
-0.000568159
0.000562924
-0.000669662
0.000548756
-0.000778124
0.000526953
-0.000894934
0.000492125
-0.00102013
0.000435855
-0.00115078
0.000345753
-0.00127723
0.000204742
-0.0013874
-5.55897e-06
-0.00143531
-0.000329254
-0.00135792
-0.000772956
-0.00108112
-0.00129499
-0.000606311
-0.00168411
-0.000138589
-0.00151311
-0.000548553
-3.93043e-05
0.000299084
-0.000114497
0.000556378
-0.000202355
0.000647551
-0.000293741
0.000670572
-0.00038687
0.000672092
-0.000482921
0.000668673
-0.00058434
0.000664343
-0.000694436
0.000658852
-0.000817275
0.000649792
-0.000957475
0.000632325
-0.00111967
0.000598046
-0.00130733
0.000533417
-0.00151988
0.000417291
-0.00174238
0.000216938
-0.00193595
-0.000135683
-0.00197393
-0.00073497
-0.00169317
-0.00157576
-0.00103974
-0.00233754
-0.000290282
-0.00226257
-0.000838835
-3.97009e-05
0.000338785
-0.000116617
0.000633294
-0.000206083
0.000737017
-0.000298386
0.000762875
-0.000391961
0.000765667
-0.00048866
0.000765373
-0.000592015
0.000767698
-0.000707014
0.00077385
-0.000840382
0.00078316
-0.001001
0.000792943
-0.00120029
0.000797332
-0.0014525
0.000785634
-0.00177327
0.000738054
-0.00216077
0.000604443
-0.00255955
0.000263095
-0.00277635
-0.000518163
-0.00253893
-0.00181318
-0.00174495
-0.00313152
-0.000648466
-0.00335906
-0.0014873
-4.05573e-05
0.000379342
-0.000119585
0.000712322
-0.000210298
0.00082773
-0.000302169
0.000854745
-0.000393784
0.000857282
-0.000487578
0.000859167
-0.000587996
0.000868116
-0.000701497
0.000887351
-0.000837342
0.000919005
-0.00100898
0.000964577
-0.00123596
0.00102432
-0.00154575
0.00109542
-0.0019708
0.0011631
-0.00252107
0.00115471
-0.00309901
0.000841032
-0.00345443
-0.000162745
-0.00331088
-0.00195673
-0.00255678
-0.00388561
-0.00122721
-0.00468864
-0.00271451
-4.25968e-05
0.000421939
-0.000124789
0.000794514
-0.000216592
0.000919534
-0.000306451
0.000944605
-0.000393114
0.000943945
-0.000479462
0.000945514
-0.000570447
0.000959101
-0.000673267
0.000990172
-0.000798609
0.00104435
-0.000962887
0.00112886
-0.00119145
0.00125288
-0.00151991
0.00142389
-0.00198304
0.00162623
-0.00257297
0.00174465
-0.00317075
0.0014388
-0.00350982
0.000176326
-0.00349957
-0.00196698
-0.00301184
-0.00437334
-0.00178238
-0.0059181
-0.00449688
-4.7108e-05
0.000469047
-0.000134669
0.000882075
-0.000227848
0.00101271
-0.000313981
0.00103074
-0.00039228
0.00102224
-0.000466032
0.00101927
-0.000540098
0.00103317
-0.000621133
0.00107121
-0.00071893
0.00114214
-0.000848637
0.00125856
-0.00103337
0.00143761
-0.00130252
0.00169304
-0.00167242
0.00199614
-0.00210671
0.00217894
-0.0024979
0.00182999
-0.00277715
0.000455574
-0.00288853
-0.0018556
-0.00274392
-0.00451795
-0.00184867
-0.00681334
-0.00634556
-5.64561e-05
0.000525503
-0.000153333
0.000978952
-0.000248509
0.00110789
-0.000328947
0.00111118
-0.000395286
0.00108858
-0.00045137
0.00107535
-0.000501311
0.00108311
-0.000549673
0.00111957
-0.000602433
0.0011949
-0.000668106
0.00132423
-0.000758058
0.00152756
-0.000883161
0.00181814
-0.00104007
0.00215305
-0.00119959
0.00233845
-0.00132811
0.00195851
-0.0014936
0.000621069
-0.00173839
-0.00161081
-0.00193331
-0.00432303
-0.0014636
-0.00728305
-0.00780916
-7.43227e-05
0.000599826
-0.000187461
0.00109209
-0.000286468
0.00120689
-0.000358402
0.00118311
-0.000408434
0.00113862
-0.000442192
0.00110911
-0.0004626
0.00110352
-0.000470844
0.00112781
-0.000467067
0.00119113
-0.000450384
0.00130755
-0.000417424
0.0014946
-0.000360242
0.00176096
-0.000268369
0.00206117
-0.000158243
0.00222833
-0.000103539
0.00190381
-0.00015525
0.00067278
-0.000450101
-0.00131596
-0.000912069
-0.00386106
-0.000918162
-0.00727696
-0.00872732
-0.000107745
0.00070757
-0.000246024
0.00123037
-0.000345771
0.00130664
-0.000405139
0.00124248
-0.00043581
0.00116929
-0.000444965
0.00111826
-0.000434175
0.00109273
-0.000400848
0.00109449
-0.000339031
0.00112931
-0.000238862
0.00120738
-8.52251e-05
0.00134096
0.000145643
0.00153009
0.000447732
0.00175909
0.00079562
0.00188044
0.00107546
0.00162396
0.00107157
0.000676676
0.000673937
-0.000918327
-1.6391e-05
-0.00317074
-0.000365887
-0.00692746
-0.00909321
-0.000176568
0.000884139
-0.000374973
0.00142877
-0.00046602
0.00139769
-0.000489169
0.00126563
-0.000486784
0.0011669
-0.000467453
0.00109893
-0.000426819
0.00105209
-0.000356179
0.00102385
-0.000244927
0.00101806
-7.74537e-05
0.00103991
0.000166613
0.00109689
0.000498929
0.00119778
0.000934443
0.00132357
0.00142961
0.00138527
0.00181574
0.00123783
0.00187237
0.000620044
0.00146249
-0.000508439
0.000764738
-0.00247299
0.000168157
-0.00633088
-0.00892505
-0.000173799
0.00105794
-0.000410081
0.00166506
-0.000544795
0.0015324
-0.000597026
0.00131786
-0.000587001
0.00115688
-0.000532519
0.00104445
-0.000439001
0.000958574
-0.000304036
0.000888883
-0.000125688
0.000839709
0.000108538
0.000805683
0.000404452
0.00080098
0.000787404
0.000814824
0.001254
0.000856973
0.0017723
0.000866971
0.00220488
0.00080525
0.00234313
0.000481797
0.00211668
-0.000281991
0.00155986
-0.00191617
0.000716119
-0.00548714
-0.00820893
-0.00157127
0.00262921
-0.00151562
0.0016094
-0.00106527
0.00108205
-0.000630865
0.000883455
-0.000232966
0.000758978
0.00015311
0.000658373
0.000532416
0.000579267
0.000908733
0.000512566
0.00128126
0.000467178
0.00165981
0.000427134
0.0020501
0.000410698
0.00246782
0.000397099
0.00291315
0.000411646
0.00336932
0.000410798
0.00380371
0.000370859
0.00410108
0.000184423
0.00408429
-0.000265196
0.00373423
-0.00156611
0.00214708
-0.00389998
-0.00606185
0.00262921
0.00423862
0.00532067
0.00620412
0.0069631
0.00762147
0.00820074
0.0087133
0.00918048
0.00960762
0.0100183
0.0104154
0.0108271
0.0112379
0.0116087
0.0117931
0.0115279
0.00996184
0.00606185
)
;

boundaryField
{
    movingWall
    {
        type            calculated;
        value           uniform 0;
    }
    fixedWalls
    {
        type            calculated;
        value           uniform 0;
    }
    frontAndBack
    {
        type            empty;
        value           nonuniform List<scalar> 0();
    }
}


// ************************************************************************* //
