/*--------------------------------*- C++ -*----------------------------------*\
  =========                 |
  \\      /  F ield         | OpenFOAM: The Open Source CFD Toolbox
   \\    /   O peration     | Website:  https://openfoam.org
    \\  /    A nd           | Version:  10
     \\/     M anipulation  |
\*---------------------------------------------------------------------------*/
FoamFile
{
    format      ascii;
    class       volVectorField;
    location    "8";
    object      U;
}
// * * * * * * * * * * * * * * * * * * * * * * * * * * * * * * * * * * * * * //

dimensions      [0 1 -1 0 0 0 0];

internalField   nonuniform List<vector> 
400
(
(-0.000174519 0.000163361 0)
(-0.00100968 0.000450946 0)
(-0.00243494 0.000566772 0)
(-0.00397598 0.000597487 0)
(-0.00552973 0.000605762 0)
(-0.00707426 0.000609085 0)
(-0.00859167 0.000606501 0)
(-0.0100543 0.000591484 0)
(-0.0114185 0.000555358 0)
(-0.0126203 0.000488148 0)
(-0.0135746 0.000379387 0)
(-0.014175 0.0002193 0)
(-0.0142994 9.45142e-07 0)
(-0.0138227 -0.000273573 0)
(-0.0126457 -0.000585826 0)
(-0.0107339 -0.000898203 0)
(-0.00816383 -0.00114887 0)
(-0.00516259 -0.00124601 0)
(-0.00218206 -0.00105193 0)
(-0.000385128 -0.000421969 0)
(-0.000502815 0.00103592 0)
(-0.00229791 0.00219098 0)
(-0.00505894 0.00264135 0)
(-0.00800768 0.00275911 0)
(-0.0109524 0.00276268 0)
(-0.0138366 0.00272025 0)
(-0.0166082 0.00263386 0)
(-0.0192046 0.00248289 0)
(-0.0215432 0.00223786 0)
(-0.0235146 0.00186478 0)
(-0.0249814 0.00132863 0)
(-0.0257811 0.000599613 0)
(-0.0257326 -0.000336714 0)
(-0.024655 -0.00146129 0)
(-0.0224135 -0.00270074 0)
(-0.0189777 -0.00390934 0)
(-0.0144883 -0.00485229 0)
(-0.00931291 -0.00519058 0)
(-0.00418017 -0.00444912 0)
(-0.000871948 -0.00206166 0)
(-0.000662119 0.00260604 0)
(-0.0029277 0.0050217 0)
(-0.00632577 0.00592917 0)
(-0.00991529 0.00615448 0)
(-0.0134759 0.00611822 0)
(-0.016944 0.00595937 0)
(-0.0202573 0.00568944 0)
(-0.0233438 0.00527349 0)
(-0.0261117 0.00465809 0)
(-0.0284413 0.00378047 0)
(-0.0301808 0.00257594 0)
(-0.0311463 0.000990564 0)
(-0.0311245 -0.000999111 0)
(-0.0298898 -0.00335774 0)
(-0.0272553 -0.00593892 0)
(-0.0231472 -0.00844751 0)
(-0.0177034 -0.0103976 0)
(-0.0113651 -0.0110876 0)
(-0.00505697 -0.00957635 0)
(-0.00103409 -0.00468238 0)
(-0.000718021 0.00438406 0)
(-0.00318969 0.00820719 0)
(-0.00689285 0.0095992 0)
(-0.0107877 0.0099252 0)
(-0.0146465 0.0098363 0)
(-0.0184138 0.00954833 0)
(-0.022034 0.00908346 0)
(-0.0254427 0.0083929 0)
(-0.0285555 0.00739836 0)
(-0.0312567 0.00600463 0)
(-0.0333901 0.00410959 0)
(-0.0347523 0.00162223 0)
(-0.0350889 -0.00150947 0)
(-0.0340911 -0.0052648 0)
(-0.0314523 -0.00943323 0)
(-0.0269768 -0.0135529 0)
(-0.0207306 -0.0168105 0)
(-0.013225 -0.0179982 0)
(-0.00568402 -0.0155413 0)
(-0.00106404 -0.00757755 0)
(-0.000734263 0.00624175 0)
(-0.00330221 0.0115543 0)
(-0.00717366 0.013453 0)
(-0.0112487 0.0138859 0)
(-0.0153003 0.0137563 0)
(-0.019288 0.0133631 0)
(-0.0231734 0.0127411 0)
(-0.0269112 0.0118283 0)
(-0.0304367 0.01052 0)
(-0.0336498 0.00868189 0)
(-0.0363972 0.00615941 0)
(-0.0384557 0.00279934 0)
(-0.0395235 -0.00151615 0)
(-0.0391655 -0.00683781 0)
(-0.0368663 -0.0129296 0)
(-0.0321925 -0.0191587 0)
(-0.0250132 -0.024264 0)
(-0.0158679 -0.0262543 0)
(-0.00645925 -0.0225776 0)
(-0.00101915 -0.0106811 0)
(-0.000737943 0.00813891 0)
(-0.00336585 0.0150108 0)
(-0.00736169 0.017447 0)
(-0.011581 0.0180062 0)
(-0.0158004 0.017865 0)
(-0.0199997 0.0174141 0)
(-0.0241654 0.016705 0)
(-0.0282823 0.0156655 0)
(-0.0323191 0.0141634 0)
(-0.0362083 0.0120188 0)
(-0.0398168 0.00900586 0)
(-0.0429153 0.00486583 0)
(-0.0451728 -0.000653721 0)
(-0.0459992 -0.00767232 0)
(-0.0445711 -0.0161356 0)
(-0.0400446 -0.0252604 0)
(-0.0318254 -0.0331943 0)
(-0.0202531 -0.0366708 0)
(-0.0076815 -0.0313796 0)
(-0.000857531 -0.0140384 0)
(-0.000737082 0.0100606 0)
(-0.0034148 0.0185579 0)
(-0.00752443 0.0215653 0)
(-0.0118779 0.0222756 0)
(-0.0162567 0.0221602 0)
(-0.0206646 0.0217129 0)
(-0.0251207 0.0210103 0)
(-0.0296518 0.0199756 0)
(-0.0342785 0.0184545 0)
(-0.0389928 0.0162198 0)
(-0.0437249 0.0129613 0)
(-0.048291 0.0082808 0)
(-0.0522919 0.00173216 0)
(-0.0551082 -0.00704744 0)
(-0.0556077 -0.0183665 0)
(-0.0521787 -0.0314965 0)
(-0.0432539 -0.0439927 0)
(-0.0282696 -0.0505445 0)
(-0.0101785 -0.0432594 0)
(-0.000555702 -0.0178253 0)
(-0.000733308 0.0120011 0)
(-0.0034572 0.0221904 0)
(-0.00767655 0.0258008 0)
(-0.0121528 0.0266835 0)
(-0.0166709 0.0266295 0)
(-0.0212618 0.0262512 0)
(-0.025984 0.0256615 0)
(-0.0309184 0.0247926 0)
(-0.0361586 0.023481 0)
(-0.0417919 0.0214643 0)
(-0.0478649 0.018352 0)
(-0.0543126 0.0135953 0)
(-0.0608557 0.00647659 0)
(-0.0669892 -0.00387901 0)
(-0.0713023 -0.0181494 0)
(-0.0711513 -0.0365634 0)
(-0.0629372 -0.056503 0)
(-0.0436582 -0.0696465 0)
(-0.0165014 -0.0608224 0)
(-0.000396954 -0.0229733 0)
(-0.000727851 0.013957 0)
(-0.00349664 0.0259061 0)
(-0.00782036 0.0301434 0)
(-0.0123971 0.0312069 0)
(-0.0170118 0.0312373 0)
(-0.0217239 0.0309843 0)
(-0.0266354 0.0306137 0)
(-0.0318911 0.0300868 0)
(-0.0376776 0.0292577 0)
(-0.0442173 0.0278621 0)
(-0.0517492 0.0254672 0)
(-0.0604864 0.0214072 0)
(-0.0705431 0.0147021 0)
(-0.0816614 0.00393941 0)
(-0.0927318 -0.0127366 0)
(-0.099757 -0.037503 0)
(-0.0948689 -0.0691802 0)
(-0.0710879 -0.0955277 0)
(-0.0323562 -0.0886894 0)
(-0.00169151 -0.032499 0)
(-0.000725004 0.0159289 0)
(-0.00354418 0.0297052 0)
(-0.00796784 0.0345768 0)
(-0.0126112 0.0358049 0)
(-0.0172536 0.0359161 0)
(-0.021982 0.0358191 0)
(-0.0269413 0.0357529 0)
(-0.0323423 0.035735 0)
(-0.0384749 0.0356786 0)
(-0.0457258 0.0353792 0)
(-0.0545967 0.0344547 0)
(-0.0657233 0.0322631 0)
(-0.0799149 0.0277628 0)
(-0.0979855 0.0189752 0)
(-0.11918 0.00162042 0)
(-0.13688 -0.0306873 0)
(-0.136987 -0.0803654 0)
(-0.110357 -0.129556 0)
(-0.0639715 -0.132397 0)
(-0.00740665 -0.0519662 0)
(-0.00073524 0.017929 0)
(-0.00362781 0.0335977 0)
(-0.00815636 0.0390818 0)
(-0.012825 0.0404182 0)
(-0.0174015 0.0405634 0)
(-0.0219969 0.0406076 0)
(-0.0267929 0.0408826 0)
(-0.0320547 0.0414924 0)
(-0.0381631 0.042461 0)
(-0.0456657 0.0437358 0)
(-0.055344 0.0451391 0)
(-0.0683147 0.0462932 0)
(-0.086299 0.046353 0)
(-0.111523 0.0424923 0)
(-0.143227 0.0261937 0)
(-0.170092 -0.0170029 0)
(-0.172986 -0.0927482 0)
(-0.148668 -0.172459 0)
(-0.105174 -0.193435 0)
(-0.0193812 -0.0908646 0)
(-0.000779408 0.0199962 0)
(-0.00380323 0.037618 0)
(-0.00846434 0.0436457 0)
(-0.0131165 0.0449745 0)
(-0.0175128 0.0450449 0)
(-0.0217883 0.0451482 0)
(-0.0261479 0.0457206 0)
(-0.030882 0.046975 0)
(-0.0364139 0.0490948 0)
(-0.043382 0.0522773 0)
(-0.0527392 0.0567255 0)
(-0.0658514 0.0625404 0)
(-0.0849331 0.0690042 0)
(-0.113201 0.071383 0)
(-0.149204 0.05492 0)
(-0.17664 -0.00216611 0)
(-0.178278 -0.106245 0)
(-0.16221 -0.216097 0)
(-0.13103 -0.267544 0)
(-0.0311229 -0.169474 0)
(-0.0008953 0.0222174 0)
(-0.00416823 0.041838 0)
(-0.00903023 0.0482599 0)
(-0.0136309 0.0493841 0)
(-0.0177182 0.0491972 0)
(-0.0214624 0.0491967 0)
(-0.0250774 0.0499155 0)
(-0.0288327 0.0516751 0)
(-0.0331059 0.0548352 0)
(-0.0384705 0.0598891 0)
(-0.0457762 0.0674922 0)
(-0.0561168 0.0781752 0)
(-0.0712012 0.0907448 0)
(-0.0940177 0.0976195 0)
(-0.122869 0.0791667 0)
(-0.143494 0.0118585 0)
(-0.143508 -0.108147 0)
(-0.137227 -0.241187 0)
(-0.125706 -0.337264 0)
(-0.0306948 -0.282676 0)
(-0.00115411 0.0247836 0)
(-0.00489469 0.0464618 0)
(-0.0100751 0.0530244 0)
(-0.0145881 0.0536082 0)
(-0.0182245 0.0528691 0)
(-0.0212235 0.0525042 0)
(-0.0237985 0.053097 0)
(-0.0261467 0.0550311 0)
(-0.0284958 0.0587935 0)
(-0.0311613 0.0650992 0)
(-0.0345692 0.0749058 0)
(-0.0390966 0.0888783 0)
(-0.045305 0.10505 0)
(-0.0556775 0.113849 0)
(-0.0699404 0.0942464 0)
(-0.0803477 0.0254693 0)
(-0.0810274 -0.0928521 0)
(-0.0848662 -0.234621 0)
(-0.0987106 -0.37009 0)
(-0.0162174 -0.373379 0)
(-0.0016684 0.0279383 0)
(-0.00625078 0.0514907 0)
(-0.0119786 0.0575838 0)
(-0.0163709 0.0572657 0)
(-0.0193624 0.0557423 0)
(-0.0213902 0.0547714 0)
(-0.0226862 0.0549141 0)
(-0.0233319 0.0565476 0)
(-0.023329 0.0601871 0)
(-0.0226235 0.0666035 0)
(-0.0210951 0.076788 0)
(-0.0184299 0.0913 0)
(-0.0142002 0.10781 0)
(-0.0105351 0.117029 0)
(-0.00885145 0.0992751 0)
(-0.0087856 0.0350146 0)
(-0.0127873 -0.0715702 0)
(-0.0238026 -0.206326 0)
(-0.0662803 -0.371995 0)
(0.00227931 -0.428324 0)
(-0.0026978 0.0322789 0)
(-0.00865628 0.0584678 0)
(-0.0150648 0.0637971 0)
(-0.0191556 0.0613921 0)
(-0.0213042 0.0582084 0)
(-0.0222181 0.0560896 0)
(-0.0221424 0.0553095 0)
(-0.0210228 0.0560441 0)
(-0.0186181 0.0586783 0)
(-0.0145152 0.0638499 0)
(-0.00814548 0.0723493 0)
(0.00116785 0.0844589 0)
(0.0145454 0.0986643 0)
(0.0304457 0.107128 0)
(0.0441649 0.0938043 0)
(0.0525574 0.0390283 0)
(0.0452439 -0.0507703 0)
(0.031711 -0.170635 0)
(-0.0372295 -0.364022 0)
(0.0219914 -0.465372 0)
(-0.00449986 0.0416822 0)
(-0.0142952 0.0646104 0)
(-0.0215918 0.0645377 0)
(-0.0243061 0.0609347 0)
(-0.0246743 0.057516 0)
(-0.0240855 0.0550166 0)
(-0.0226086 0.0535458 0)
(-0.0198678 0.053179 0)
(-0.0153608 0.0542018 0)
(-0.0084543 0.0570435 0)
(0.00156832 0.0622256 0)
(0.0159221 0.0700267 0)
(0.0353838 0.0796603 0)
(0.0583451 0.0855243 0)
(0.0787101 0.0770435 0)
(0.0926461 0.038385 0)
(0.0843392 -0.0304651 0)
(0.0684389 -0.140033 0)
(-0.012156 -0.349119 0)
(0.0478393 -0.47922 0)
(-0.00293837 0.0373721 0)
(-0.0127298 0.0817234 0)
(-0.0255159 0.0811379 0)
(-0.0301466 0.0702959 0)
(-0.0303826 0.0624005 0)
(-0.0285318 0.0571953 0)
(-0.0247312 0.0534114 0)
(-0.0189651 0.0505813 0)
(-0.0111338 0.0488362 0)
(-0.000893991 0.0482226 0)
(0.0122255 0.0492561 0)
(0.029362 0.0519762 0)
(0.050357 0.0562215 0)
(0.0749794 0.0580802 0)
(0.0960342 0.0529792 0)
(0.114955 0.0281815 0)
(0.105833 -0.0193439 0)
(0.0953897 -0.119816 0)
(0.0288752 -0.318718 0)
(0.0889553 -0.452956 0)
(-0.0976615 0.0970939 0)
(-0.0744893 0.0762979 0)
(-0.0643084 0.0573652 0)
(-0.0422333 0.0494568 0)
(-0.021953 0.0439148 0)
(-0.00197986 0.039393 0)
(0.0170365 0.0356675 0)
(0.0364449 0.0325099 0)
(0.0545423 0.0302982 0)
(0.0744018 0.028474 0)
(0.0923078 0.0278254 0)
(0.11458 0.0276656 0)
(0.132197 0.0287525 0)
(0.15871 0.0293828 0)
(0.168996 0.0270976 0)
(0.198104 0.0154053 0)
(0.183834 -0.0162959 0)
(0.195517 -0.0887071 0)
(0.142551 -0.230333 0)
(0.169024 -0.342691 0)
(0.13561 0.109817 0)
(0.171898 0.0874298 0)
(0.231983 0.0657148 0)
(0.287233 0.0515884 0)
(0.329617 0.0423701 0)
(0.366849 0.0354819 0)
(0.395321 0.0303083 0)
(0.425177 0.0258971 0)
(0.445981 0.0226882 0)
(0.473087 0.019658 0)
(0.488011 0.0178224 0)
(0.515386 0.0156563 0)
(0.524951 0.0150421 0)
(0.554045 0.0132664 0)
(0.554903 0.0133361 0)
(0.579978 0.00937876 0)
(0.555211 0.00425674 0)
(0.548181 -0.0159156 0)
(0.443249 -0.0473084 0)
(0.340293 -0.0993451 0)
)
;

boundaryField
{
    movingWall
    {
        type            fixedValue;
        value           uniform (1 0 0);
    }
    fixedWalls
    {
        type            noSlip;
    }
    frontAndBack
    {
        type            empty;
    }
}


// ************************************************************************* //
