/*--------------------------------*- C++ -*----------------------------------*\
  =========                 |
  \\      /  F ield         | OpenFOAM: The Open Source CFD Toolbox
   \\    /   O peration     | Website:  https://openfoam.org
    \\  /    A nd           | Version:  10
     \\/     M anipulation  |
\*---------------------------------------------------------------------------*/
FoamFile
{
    format      ascii;
    class       volVectorField;
    location    "5.425";
    object      U;
}
// * * * * * * * * * * * * * * * * * * * * * * * * * * * * * * * * * * * * * //

dimensions      [0 1 -1 0 0 0 0];

internalField   nonuniform List<vector> 
475
(
(0.975104 0.0158724 0)
(0.975353 0.00700344 0)
(0.950591 0.0308672 0)
(0.953698 0.00161813 0)
(0.920014 0.0300366 0)
(0.998726 0.00824148 0)
(1.01369 0.0155824 0)
(1.02592 0.0151246 0)
(1.04317 0.00878648 0)
(1.05572 0.0016995 0)
(0.999748 9.34916e-05 0)
(1.0095 -0.00257858 0)
(1.02461 -0.00469932 0)
(1.04134 -0.00880289 0)
(1.05657 -0.015367 0)
(0.999952 -0.00986892 0)
(1.01009 -0.0198354 0)
(1.02273 -0.0217614 0)
(1.03627 -0.0230172 0)
(1.04406 -0.0260577 0)
(0.981277 -0.0096135 0)
(0.968774 -0.0193985 0)
(0.95385 -0.0213957 0)
(0.93343 -0.0228964 0)
(0.907127 -0.0223319 0)
(0.925755 -0.0159891 0)
(0.931157 -0.0337038 0)
(0.937688 -0.043495 0)
(0.945826 -0.0514855 0)
(0.95852 -0.0623383 0)
(0.979945 -0.0780171 0)
(1.00596 -0.102979 0)
(1.03279 -0.134829 0)
(1.05832 -0.169038 0)
(1.07653 -0.205869 0)
(1.0894 -0.239097 0)
(1.09396 -0.267409 0)
(1.08757 -0.287057 0)
(1.07333 -0.290978 0)
(1.04898 -0.285362 0)
(1.0185 -0.268141 0)
(0.982308 -0.237722 0)
(0.942753 -0.20274 0)
(0.907344 -0.163141 0)
(0.869659 -0.117978 0)
(0.827996 -0.0741023 0)
(0.79135 -0.0368662 0)
(0.758478 -0.00371259 0)
(0.725767 0.0260542 0)
(0.693035 0.049931 0)
(0.663233 0.0655529 0)
(0.640087 0.0731825 0)
(0.625341 0.0783729 0)
(0.61843 0.0854705 0)
(0.617673 0.0929815 0)
(0.620681 0.0962367 0)
(0.624854 0.0922436 0)
(0.628258 0.0815086 0)
(0.630066 0.0667334 0)
(0.630401 0.0509524 0)
(0.629836 0.0364085 0)
(0.628947 0.0243406 0)
(0.628107 0.0150941 0)
(0.627455 0.00855132 0)
(0.62701 0.0042012 0)
(0.626734 0.00159113 0)
(0.626587 8.16216e-05 0)
(0.626474 -0.000533166 0)
(0.626416 -0.000860605 0)
(0.626329 -0.000724789 0)
(1.06938 -0.00878007 0)
(1.0783 -0.0200708 0)
(1.08411 -0.0320453 0)
(1.08921 -0.0429491 0)
(1.09188 -0.0579834 0)
(1.09641 -0.0755571 0)
(1.10137 -0.101791 0)
(1.10144 -0.133288 0)
(1.09824 -0.167347 0)
(1.08595 -0.202933 0)
(1.06742 -0.232533 0)
(1.03977 -0.256389 0)
(1.00281 -0.26762 0)
(0.962398 -0.262321 0)
(0.912844 -0.250084 0)
(0.856542 -0.227036 0)
(0.798909 -0.19132 0)
(0.742627 -0.152319 0)
(0.690454 -0.10786 0)
(0.641617 -0.0620615 0)
(0.594207 -0.0264422 0)
(0.549276 0.00312533 0)
(0.506835 0.035864 0)
(0.469214 0.0678703 0)
(0.44362 0.0875555 0)
(0.433637 0.0912533 0)
(0.436168 0.0856202 0)
(0.446559 0.0797795 0)
(0.461927 0.0782734 0)
(0.480992 0.0796052 0)
(0.502571 0.0795984 0)
(0.524902 0.0752691 0)
(0.546047 0.0662436 0)
(0.56457 0.0540871 0)
(0.579813 0.0410057 0)
(0.591726 0.0288455 0)
(0.600623 0.0187463 0)
(0.606988 0.0110835 0)
(0.611342 0.00577083 0)
(0.614178 0.00234512 0)
(0.615907 0.000422703 0)
(0.61692 -0.000612174 0)
(0.617422 -0.000918282 0)
(0.617677 -0.00106573 0)
(0.617716 -0.000792436 0)
(1.06891 -0.0219227 0)
(1.07743 -0.0323532 0)
(1.08114 -0.0441792 0)
(1.08422 -0.0562384 0)
(1.08081 -0.0711275 0)
(1.07842 -0.0862122 0)
(1.07021 -0.108296 0)
(1.05871 -0.131574 0)
(1.04145 -0.159982 0)
(1.01468 -0.187382 0)
(0.984913 -0.210466 0)
(0.942658 -0.227136 0)
(0.894116 -0.223214 0)
(0.837803 -0.205298 0)
(0.76251 -0.189165 0)
(0.686639 -0.172122 0)
(0.612434 -0.14255 0)
(0.537211 -0.104214 0)
(0.469561 -0.0605794 0)
(0.414853 -0.0173916 0)
(0.371457 0.0195025 0)
(0.335084 0.0517724 0)
(0.309631 0.0771267 0)
(0.301171 0.0897237 0)
(0.309438 0.0883932 0)
(0.328299 0.077594 0)
(0.350733 0.0648275 0)
(0.373266 0.0559416 0)
(0.396014 0.0524526 0)
(0.420304 0.0521407 0)
(0.446544 0.0515621 0)
(0.473603 0.048306 0)
(0.499552 0.0418933 0)
(0.522601 0.0333543 0)
(0.541629 0.0242702 0)
(0.556281 0.015991 0)
(0.566831 0.00933533 0)
(0.57392 0.00453469 0)
(0.578321 0.00144698 0)
(0.580836 -0.000334506 0)
(0.582079 -0.0011373 0)
(0.582596 -0.00142779 0)
(0.582598 -0.00129053 0)
(0.582546 -0.00118079 0)
(0.58217 -0.000769801 0)
(1.05089 -0.0297381 0)
(1.05088 -0.0366099 0)
(1.04857 -0.0427396 0)
(1.04048 -0.0518766 0)
(1.02626 -0.0597592 0)
(1.00913 -0.0705471 0)
(0.979882 -0.0841362 0)
(0.949964 -0.098463 0)
(0.901425 -0.11941 0)
(0.848419 -0.136177 0)
(0.781441 -0.156581 0)
(0.696592 -0.166778 0)
(0.619078 -0.151651 0)
(0.519657 -0.12873 0)
(0.373234 -0.0905305 0)
(0.243064 -0.0425825 0)
(0.155976 -0.0123653 0)
(0.100633 0.0026137 0)
(0.0722126 0.015927 0)
(0.0630655 0.0319552 0)
(0.0705868 0.0472618 0)
(0.0913867 0.0586709 0)
(0.121885 0.0642286 0)
(0.15925 0.0626791 0)
(0.199286 0.0556566 0)
(0.236932 0.0463315 0)
(0.269498 0.0379902 0)
(0.297403 0.0323519 0)
(0.322726 0.0293065 0)
(0.34745 0.0275302 0)
(0.372252 0.025425 0)
(0.396302 0.0220632 0)
(0.418136 0.0175158 0)
(0.436442 0.0124754 0)
(0.450518 0.00776465 0)
(0.460384 0.00397118 0)
(0.466634 0.00131946 0)
(0.470106 -0.000301844 0)
(0.471638 -0.00111937 0)
(0.471976 -0.00139759 0)
(0.471662 -0.00134643 0)
(0.471117 -0.00117049 0)
(0.470448 -0.000895335 0)
(0.469996 -0.000711119 0)
(0.469323 -0.000418642 0)
(0.880496 -0.0246449 0)
(0.847286 -0.0262821 0)
(0.815922 -0.0282758 0)
(0.773735 -0.0325018 0)
(0.732114 -0.0332945 0)
(0.67918 -0.0407173 0)
(0.619123 -0.042855 0)
(0.552936 -0.0533204 0)
(0.462732 -0.0605545 0)
(0.375777 -0.0685892 0)
(0.248208 -0.0900965 0)
(0.110853 -0.0595024 0)
(0.0181311 0.00434228 0)
(-0.0358638 0.041717 0)
(-0.0632651 0.0443849 0)
(-0.0767177 0.0188386 0)
(-0.0871615 -0.00872797 0)
(-0.0975767 -0.0193369 0)
(-0.103079 -0.0174882 0)
(-0.0984186 -0.00872888 0)
(-0.0820888 0.00084781 0)
(-0.055088 0.00775663 0)
(-0.0211471 0.0108373 0)
(0.0151449 0.0110587 0)
(0.0492272 0.0096295 0)
(0.0783327 0.00763961 0)
(0.102231 0.00593272 0)
(0.122076 0.00479373 0)
(0.139423 0.00412956 0)
(0.15537 0.00363151 0)
(0.170204 0.00300994 0)
(0.183444 0.00221358 0)
(0.194364 0.00136992 0)
(0.202476 0.000621188 0)
(0.207787 6.63665e-05 0)
(0.210709 -0.000273712 0)
(0.211855 -0.00043636 0)
(0.211869 -0.000490138 0)
(0.211285 -0.000470618 0)
(0.210461 -0.000410304 0)
(0.209616 -0.000328625 0)
(0.208864 -0.000248311 0)
(0.208248 -0.000174645 0)
(0.207809 -0.000122448 0)
(0.207352 -6.59714e-05 0)
(0.00468356 -0.0339136 0)
(0.00473285 -0.0306379 0)
(-0.0132374 -0.00480539 0)
(-0.0695161 0.0318563 0)
(-0.156882 0.0489301 0)
(-0.241655 0.0474552 0)
(-0.311192 0.0394193 0)
(-0.361095 0.0298633 0)
(-0.38901 0.0196062 0)
(-0.395774 0.00923213 0)
(-0.383222 -0.00234158 0)
(-0.352075 -0.0131672 0)
(-0.304447 -0.0225093 0)
(-0.243346 -0.0294941 0)
(-0.173539 -0.0333409 0)
(-0.0992869 -0.0347331 0)
(-0.0242398 -0.0343217 0)
(0.0486229 -0.0321167 0)
(0.116633 -0.0279181 0)
(0.177149 -0.0226908 0)
(0.228859 -0.01718 0)
(0.271143 -0.0111068 0)
(0.302774 -0.00293383 0)
(0.321482 0.00835194 0)
(0.325363 0.020102 0)
(0.314455 0.0261523 0)
(0.292009 0.0229722 0)
(0.264055 0.0144387 0)
(0.236974 0.00616826 0)
(0.214959 0.000887441 0)
(0.199662 -0.00155367 0)
(0.190838 -0.00236548 0)
(0.187214 -0.00250211 0)
(0.187162 -0.0024408 0)
(0.189186 -0.00225462 0)
(0.192112 -0.00192025 0)
(0.195185 -0.00154237 0)
(0.197985 -0.00118661 0)
(0.200327 -0.000877265 0)
(0.202183 -0.000627149 0)
(0.20359 -0.000434746 0)
(0.204627 -0.000295149 0)
(0.205379 -0.000191983 0)
(0.205874 -0.000127529 0)
(0.206357 -6.73355e-05 0)
(-0.00716858 0.0264687 0)
(-0.0486617 0.0521251 0)
(-0.110267 0.0858665 0)
(-0.161775 0.110623 0)
(-0.209286 0.113866 0)
(-0.241383 0.099578 0)
(-0.263022 0.0751498 0)
(-0.268956 0.0474255 0)
(-0.26005 0.0169171 0)
(-0.238365 -0.0136544 0)
(-0.201487 -0.0435534 0)
(-0.150619 -0.0704356 0)
(-0.0872777 -0.0927542 0)
(-0.014209 -0.108865 0)
(0.065674 -0.117774 0)
(0.146734 -0.120087 0)
(0.224945 -0.117771 0)
(0.298931 -0.111373 0)
(0.366858 -0.100754 0)
(0.425411 -0.0877557 0)
(0.473553 -0.0740108 0)
(0.512437 -0.0591888 0)
(0.542305 -0.0437168 0)
(0.563108 -0.0287118 0)
(0.578165 -0.0126591 0)
(0.590431 0.0068966 0)
(0.598518 0.0272262 0)
(0.5968 0.0415934 0)
(0.580745 0.0447903 0)
(0.553299 0.0377759 0)
(0.522665 0.0259719 0)
(0.496149 0.01438 0)
(0.477032 0.00551955 0)
(0.465311 -0.000198008 0)
(0.459557 -0.00327509 0)
(0.457733 -0.00450359 0)
(0.458048 -0.00458031 0)
(0.45936 -0.00408709 0)
(0.460995 -0.00337367 0)
(0.462589 -0.00265088 0)
(0.463995 -0.00199105 0)
(0.465119 -0.00147449 0)
(0.466077 -0.00102394 0)
(0.466659 -0.00075955 0)
(0.467401 -0.000433173 0)
(-0.0308199 0.0115249 0)
(-0.0595498 0.0657507 0)
(-0.0599223 0.0950323 0)
(-0.0529991 0.116791 0)
(-0.0392958 0.118957 0)
(-0.0190648 0.0988553 0)
(0.00296161 0.0658508 0)
(0.0269299 0.0292759 0)
(0.0602992 -0.00804192 0)
(0.102112 -0.0476032 0)
(0.155199 -0.0884595 0)
(0.215017 -0.126327 0)
(0.281257 -0.158231 0)
(0.349991 -0.181474 0)
(0.418078 -0.193311 0)
(0.48414 -0.194261 0)
(0.545811 -0.187817 0)
(0.60025 -0.175391 0)
(0.646981 -0.155591 0)
(0.685243 -0.130326 0)
(0.712804 -0.105953 0)
(0.730161 -0.0833582 0)
(0.740139 -0.0577776 0)
(0.74272 -0.0307614 0)
(0.737956 -0.00949441 0)
(0.7309 0.00481916 0)
(0.727542 0.0188125 0)
(0.727285 0.0360785 0)
(0.723594 0.0522405 0)
(0.710983 0.0599605 0)
(0.689403 0.0559911 0)
(0.66327 0.043382 0)
(0.637927 0.0280114 0)
(0.61699 0.0145776 0)
(0.601625 0.00511313 0)
(0.591356 -0.000512647 0)
(0.58507 -0.00326383 0)
(0.58154 -0.00419496 0)
(0.579799 -0.00412126 0)
(0.579119 -0.00363917 0)
(0.579053 -0.00297581 0)
(0.579234 -0.00238997 0)
(0.579624 -0.00175826 0)
(0.579876 -0.00140013 0)
(0.580376 -0.000847914 0)
(-0.0245508 0.141195 0)
(-0.00458103 0.100231 0)
(0.0279484 0.0969628 0)
(0.0754772 0.101311 0)
(0.130599 0.0957361 0)
(0.188898 0.0748757 0)
(0.247707 0.0420629 0)
(0.303597 -0.00100888 0)
(0.36196 -0.0493863 0)
(0.42348 -0.0982665 0)
(0.485629 -0.146104 0)
(0.546699 -0.18946 0)
(0.607325 -0.222248 0)
(0.666075 -0.244584 0)
(0.718785 -0.25626 0)
(0.763614 -0.253112 0)
(0.802191 -0.238918 0)
(0.833555 -0.217709 0)
(0.85546 -0.189447 0)
(0.86934 -0.155148 0)
(0.875521 -0.11881 0)
(0.873113 -0.0855209 0)
(0.864902 -0.055896 0)
(0.853158 -0.0269402 0)
(0.837031 -0.00126553 0)
(0.817137 0.015805 0)
(0.798736 0.0276859 0)
(0.785971 0.0415845 0)
(0.777199 0.0583543 0)
(0.767203 0.0716571 0)
(0.75233 0.0751119 0)
(0.732421 0.0677533 0)
(0.709584 0.0533911 0)
(0.686757 0.0372141 0)
(0.666487 0.0230267 0)
(0.650156 0.0124872 0)
(0.638018 0.00555888 0)
(0.629595 0.00144973 0)
(0.624067 -0.000705271 0)
(0.620632 -0.00170709 0)
(0.618658 -0.00195956 0)
(0.61759 -0.00193642 0)
(0.617122 -0.00160661 0)
(0.616904 -0.00141922 0)
(0.616928 -0.000927375 0)
(0.08155 0.00203378 0)
(0.119868 -0.0058268 0)
(0.209733 -0.00393465 0)
(0.285287 -0.00365586 0)
(0.363548 -0.0109554 0)
(0.445239 -0.0293618 0)
(0.525266 -0.057065 0)
(0.601011 -0.093033 0)
(0.671379 -0.134566 0)
(0.73712 -0.177355 0)
(0.798659 -0.218083 0)
(0.851374 -0.256501 0)
(0.894333 -0.2841 0)
(0.928978 -0.296076 0)
(0.953974 -0.29825 0)
(0.968319 -0.286816 0)
(0.971839 -0.263852 0)
(0.969851 -0.235707 0)
(0.963415 -0.19858 0)
(0.94848 -0.154317 0)
(0.928526 -0.112055 0)
(0.905499 -0.073607 0)
(0.878742 -0.0359494 0)
(0.85144 -0.000749007 0)
(0.82385 0.0261298 0)
(0.797168 0.0414346 0)
(0.774366 0.0492345 0)
(0.756673 0.0575312 0)
(0.743931 0.0697388 0)
(0.734282 0.0819446 0)
(0.725001 0.0878696 0)
(0.713996 0.084316 0)
(0.700697 0.0727421 0)
(0.685974 0.0571544 0)
(0.671375 0.0413936 0)
(0.658347 0.0278054 0)
(0.647771 0.0173055 0)
(0.639859 0.00979157 0)
(0.634347 0.00482108 0)
(0.63075 0.00172303 0)
(0.628541 3.23125e-05 0)
(0.627251 -0.000857919 0)
(0.62656 -0.00106845 0)
(0.62622 -0.00117582 0)
(0.626046 -0.000865533 0)
)
;

boundaryField
{
    inlet
    {
        type            fixedValue;
        value           uniform (1 0 0);
    }
    outlet
    {
        type            zeroGradient;
    }
    upperWall
    {
        type            noSlip;
    }
    lowerWall
    {
        type            noSlip;
    }
    frontAndBack
    {
        type            empty;
    }
}


// ************************************************************************* //
