/*--------------------------------*- C++ -*----------------------------------*\
  =========                 |
  \\      /  F ield         | OpenFOAM: The Open Source CFD Toolbox
   \\    /   O peration     | Website:  https://openfoam.org
    \\  /    A nd           | Version:  10
     \\/     M anipulation  |
\*---------------------------------------------------------------------------*/
FoamFile
{
    format      ascii;
    class       volScalarField;
    location    "8.375";
    object      p;
}
// * * * * * * * * * * * * * * * * * * * * * * * * * * * * * * * * * * * * * //

dimensions      [0 2 -2 0 0 0 0];

internalField   nonuniform List<scalar> 
400
(
-2.09077e-08
-2.63423e-05
3.007e-05
0.000139354
0.000309368
0.000542939
0.000844374
0.00121907
0.00167222
0.00220739
0.00282483
0.003519
0.00427515
0.00506607
0.00584829
0.00656308
0.00714122
0.00752177
0.00770491
0.00761557
2.82e-05
1.60608e-06
6.533e-05
0.000176871
0.00034564
0.000575299
0.000870606
0.00123711
0.00168013
0.00220358
0.0028085
0.00349044
0.00423509
0.00501939
0.00579985
0.00651724
0.00709854
0.0074789
0.00766294
0.007556
-4.02416e-05
-7.55044e-05
-1.35653e-05
9.33809e-05
0.000255508
0.000476719
0.000762367
0.001119
0.00155344
0.00207188
0.00267819
0.00337145
0.00414303
0.00496999
0.00580825
0.00659047
0.00722643
0.00762967
0.0078053
0.00764115
-0.000184048
-0.000225387
-0.000167442
-6.82623e-05
8.31631e-05
0.000291128
0.000561874
0.00090341
0.00132483
0.0018358
0.00244507
0.00315751
0.00397003
0.00486475
0.00579913
0.00669405
0.00743134
0.00787839
0.00803534
0.00777033
-0.000411596
-0.000458049
-0.000406902
-0.000319267
-0.000183315
5.73052e-06
0.000255151
0.000574709
0.000976311
0.00147395
0.00208288
0.00281691
0.00368252
0.00467091
0.00574438
0.0068114
0.00771303
0.0082372
0.00835191
0.00791241
-0.00072138
-0.000772903
-0.000731376
-0.000659439
-0.000544694
-0.000382051
-0.000163344
0.000122797
0.00049106
0.000960061
0.00155257
0.00229439
0.00320804
0.0042993
0.00554808
0.00686071
0.00802502
0.00868946
0.00871731
0.00797532
-0.00110841
-0.00116555
-0.00113654
-0.00108504
-0.000998465
-0.000871877
-0.000696967
-0.000461586
-0.000149255
0.000262282
0.000802663
0.00151024
0.00242853
0.00359361
0.00501734
0.00664224
0.00821127
0.00914734
0.009025
0.00780572
-0.00156594
-0.00162956
-0.00161594
-0.00158994
-0.00153937
-0.00146025
-0.0013454
-0.00118389
-0.000959997
-0.000651037
-0.000224779
0.00036398
0.00117636
0.00228363
0.00374945
0.00565247
0.00777104
0.00924603
0.00897171
0.00729427
-0.00208539
-0.00215638
-0.00216053
-0.00216465
-0.00215775
-0.00213798
-0.00210114
-0.00204028
-0.0019451
-0.00180014
-0.00158146
-0.00125261
-0.000763676
-4.19978e-05
0.00104878
0.00272344
0.00524697
0.00769173
0.00784605
0.00661065
-0.00265646
-0.00273552
-0.00275843
-0.00279552
-0.00283798
-0.00288753
-0.00294524
-0.00301172
-0.00308796
-0.00317596
-0.00328011
-0.00341275
-0.00361786
-0.00399543
-0.00452276
-0.00451836
-0.00251843
0.00157428
0.00445418
0.0060231
-0.00326773
-0.00335517
-0.00339528
-0.00346485
-0.00355803
-0.00368169
-0.00384435
-0.00405784
-0.00434106
-0.00472595
-0.00526952
-0.00607961
-0.00739169
-0.00971975
-0.0133387
-0.0172751
-0.017068
-0.0110347
-0.00358902
0.00298802
-0.00390785
-0.00400292
-0.00405387
-0.00414983
-0.00428807
-0.00448189
-0.00474826
-0.00511194
-0.00561366
-0.00632371
-0.00737112
-0.00899893
-0.0116853
-0.0164424
-0.0238405
-0.0325785
-0.0353727
-0.0281847
-0.0169257
-0.00566858
-0.00456952
-0.00467154
-0.00472255
-0.00483248
-0.00500089
-0.0052486
-0.00560061
-0.0060926
-0.00678391
-0.00777626
-0.00925628
-0.0115677
-0.0153443
-0.0217869
-0.0315706
-0.0426839
-0.0475444
-0.0406802
-0.0299311
-0.0167829
-0.00524497
-0.00534392
-0.00536854
-0.00546776
-0.0056434
-0.00592049
-0.00632586
-0.00690097
-0.00771207
-0.00886936
-0.0105763
-0.0131856
-0.0173512
-0.0240497
-0.0340574
-0.0446225
-0.0497812
-0.0433663
-0.0350169
-0.0225361
-0.00596157
-0.00606509
-0.0060403
-0.00610696
-0.00625144
-0.00651127
-0.00691574
-0.00750575
-0.00834435
-0.0095284
-0.0112404
-0.0137645
-0.0176957
-0.0235833
-0.0319286
-0.0397803
-0.0436411
-0.0379635
-0.0331445
-0.0210189
-0.00680296
-0.0067098
-0.00655416
-0.00650013
-0.00658603
-0.0068232
-0.0072221
-0.00780506
-0.00861999
-0.0097371
-0.0112958
-0.0135102
-0.0167556
-0.0212111
-0.0271294
-0.0321766
-0.034535
-0.0292704
-0.0269052
-0.0117175
-0.00726797
-0.00767237
-0.00733795
-0.00730548
-0.00725713
-0.00735368
-0.00760806
-0.00805345
-0.00873185
-0.00968456
-0.0110363
-0.0128912
-0.0154758
-0.0187387
-0.0228721
-0.0258259
-0.0268401
-0.0214096
-0.0179573
0.00694853
-0.0106457
-0.00809926
-0.00741134
-0.00676254
-0.00663785
-0.00677252
-0.00711007
-0.00761375
-0.00830786
-0.00919556
-0.0104231
-0.012014
-0.0141536
-0.0166577
-0.0195825
-0.021084
-0.0207841
-0.0137127
-0.00380319
0.0392502
-0.00727838
-0.0102453
-0.00909694
-0.00904364
-0.00852962
-0.00824771
-0.00815379
-0.00827789
-0.00866848
-0.00930898
-0.010326
-0.0116899
-0.013721
-0.016076
-0.0190666
-0.0202377
-0.0190133
-0.00510488
0.0203727
0.0969076
-0.0325191
-0.00741699
-0.00580985
-0.00500792
-0.00476908
-0.00494574
-0.00542256
-0.00600979
-0.0067988
-0.00771024
-0.00898828
-0.0104834
-0.0124348
-0.0141689
-0.0153957
-0.0124103
-0.00219031
0.0318401
0.0981263
0.228677
)
;

boundaryField
{
    movingWall
    {
        type            zeroGradient;
    }
    fixedWalls
    {
        type            zeroGradient;
    }
    frontAndBack
    {
        type            empty;
    }
}


// ************************************************************************* //
