/*--------------------------------*- C++ -*----------------------------------*\
  =========                 |
  \\      /  F ield         | OpenFOAM: The Open Source CFD Toolbox
   \\    /   O peration     | Website:  https://openfoam.org
    \\  /    A nd           | Version:  10
     \\/     M anipulation  |
\*---------------------------------------------------------------------------*/
FoamFile
{
    format      ascii;
    class       volVectorField;
    location    "4.45";
    object      U;
}
// * * * * * * * * * * * * * * * * * * * * * * * * * * * * * * * * * * * * * //

dimensions      [0 1 -1 0 0 0 0];

internalField   nonuniform List<vector> 
8000
(
(-4.99434e-05 6.30136e-05 -1.76704e-05)
(-0.000423809 0.000162598 1.74506e-05)
(-0.0010407 0.000187657 2.89067e-05)
(-0.00163539 0.000191322 3.39118e-05)
(-0.0022312 0.000189802 3.34148e-05)
(-0.00280395 0.000186106 2.95033e-05)
(-0.00334011 0.000179555 2.33342e-05)
(-0.00382577 0.000168747 1.5142e-05)
(-0.00424443 0.000152138 4.70693e-06)
(-0.00457735 0.000128337 -8.06169e-06)
(-0.00480331 9.65126e-05 -2.26357e-05)
(-0.00489931 5.65092e-05 -3.86956e-05)
(-0.0048422 7.55841e-06 -5.62751e-05)
(-0.00461198 -4.97666e-05 -7.48788e-05)
(-0.00419538 -0.000112347 -9.32155e-05)
(-0.0035889 -0.000175848 -0.000109282)
(-0.00280663 -0.000233484 -0.000119453)
(-0.0019032 -0.000273431 -0.000118192)
(-0.000874967 -0.000268052 -0.000101591)
(-0.000159017 -0.000134017 -3.67049e-05)
(-0.000146619 0.000479724 -7.03493e-05)
(-0.000824795 0.000886793 -3.99056e-05)
(-0.00184269 0.000981772 -2.72305e-05)
(-0.00282207 0.00098124 -1.82177e-05)
(-0.00379034 0.000950237 -1.39018e-05)
(-0.00470922 0.000902081 -1.23472e-05)
(-0.00555547 0.000836345 -1.25525e-05)
(-0.00630682 0.000749793 -1.44576e-05)
(-0.00693845 0.000638683 -1.82786e-05)
(-0.00742301 0.000499583 -2.42651e-05)
(-0.00773049 0.000330066 -3.25077e-05)
(-0.00783099 0.000128381 -4.29536e-05)
(-0.00769518 -0.000103768 -5.60069e-05)
(-0.00729597 -0.00036032 -7.02926e-05)
(-0.00661656 -0.000630321 -8.4933e-05)
(-0.00565519 -0.000896706 -9.76988e-05)
(-0.00443523 -0.00113325 -0.000104176)
(-0.00303432 -0.00129361 -9.81667e-05)
(-0.0014532 -0.00127199 -7.622e-05)
(-0.000301444 -0.000748681 4.17496e-07)
(-0.000174186 0.00117473 -9.43308e-05)
(-0.000951392 0.00199928 -6.59803e-05)
(-0.002103 0.00218176 -5.27317e-05)
(-0.00320621 0.00216458 -4.17289e-05)
(-0.00429417 0.002079 -3.51084e-05)
(-0.0053252 0.00195252 -3.10104e-05)
(-0.00627446 0.00178616 -2.84982e-05)
(-0.00711826 0.00157551 -2.76395e-05)
(-0.00783007 0.00131511 -2.87562e-05)
(-0.00838063 0.000999687 -3.22014e-05)
(-0.00873854 0.00062523 -3.82444e-05)
(-0.00886934 0.00018977 -4.72888e-05)
(-0.00873667 -0.000303105 -5.88581e-05)
(-0.00830877 -0.00084183 -7.27584e-05)
(-0.00756338 -0.00140472 -8.77323e-05)
(-0.00649226 -0.00195741 -0.000101213)
(-0.00511541 -0.00244742 -0.000107995)
(-0.00351772 -0.0027814 -0.000100828)
(-0.00169658 -0.00274766 -7.60435e-05)
(-0.000356269 -0.00170666 9.96585e-06)
(-0.000180522 0.00188771 -0.000112743)
(-0.000999847 0.00314816 -8.65025e-05)
(-0.00221674 0.00341843 -7.30948e-05)
(-0.00338078 0.00338333 -6.08977e-05)
(-0.00453178 0.00324371 -5.2862e-05)
(-0.00562714 0.00304127 -4.71791e-05)
(-0.00664286 0.00277815 -4.29734e-05)
(-0.00755576 0.00244834 -4.04183e-05)
(-0.00833929 0.00204399 -3.99715e-05)
(-0.00896315 0.00155704 -4.214e-05)
(-0.00939312 0.000980877 -4.73536e-05)
(-0.00959135 0.000313068 -5.60052e-05)
(-0.00951526 -0.000443407 -6.88369e-05)
(-0.00912089 -0.00127542 -8.42548e-05)
(-0.00837186 -0.00215199 -0.000101347)
(-0.00724665 -0.0030219 -0.000117261)
(-0.00575465 -0.00380364 -0.000125936)
(-0.00398592 -0.00434854 -0.000118559)
(-0.00193367 -0.00432298 -9.06694e-05)
(-0.000407592 -0.00272681 8.02297e-06)
(-0.000183485 0.0026536 -0.000128747)
(-0.00103966 0.00438389 -0.000103982)
(-0.00231923 0.00474867 -9.0489e-05)
(-0.00354376 0.00469667 -7.75533e-05)
(-0.00476004 0.00450367 -6.87849e-05)
(-0.00592515 0.00422673 -6.23956e-05)
(-0.00701694 0.00386928 -5.75584e-05)
(-0.00801379 0.00342357 -5.45355e-05)
(-0.00888999 0.00287874 -5.39039e-05)
(-0.00961481 0.00222281 -5.63287e-05)
(-0.0101513 0.00144452 -6.23981e-05)
(-0.0104555 0.00053656 -7.25038e-05)
(-0.0104761 -0.0005 -8.85994e-05)
(-0.010154 -0.00165314 -0.000108094)
(-0.00943186 -0.00288617 -0.000130327)
(-0.00826468 -0.00413176 -0.000151875)
(-0.00663945 -0.00527468 -0.000165077)
(-0.00464731 -0.00609608 -0.000158639)
(-0.00227692 -0.00611097 -0.000126373)
(-0.000485202 -0.00389412 -7.6286e-06)
(-0.000187257 0.00346827 -0.000145813)
(-0.00108803 0.00570583 -0.000122204)
(-0.00244364 0.00617411 -0.000108673)
(-0.00374195 0.00610822 -9.51859e-05)
(-0.00503776 0.00586532 -8.59948e-05)
(-0.00628812 0.00551941 -7.93326e-05)
(-0.00747373 0.00507561 -7.44355e-05)
(-0.00857568 0.00452424 -7.16709e-05)
(-0.00957035 0.00385074 -7.17532e-05)
(-0.0104277 0.00303762 -7.55598e-05)
(-0.0111088 0.0020665 -8.39946e-05)
(-0.0115637 0.0009216 -9.81721e-05)
(-0.0117306 -0.000404429 -0.000119351)
(-0.0115306 -0.00190744 -0.000145965)
(-0.0108755 -0.00355016 -0.000177338)
(-0.00968387 -0.00525152 -0.00020925)
(-0.0079032 -0.00685754 -0.000231593)
(-0.00561386 -0.0080596 -0.000228746)
(-0.0027948 -0.00817346 -0.000190932)
(-0.000609275 -0.00526034 -4.14079e-05)
(-0.000192274 0.00434133 -0.000166398)
(-0.00114782 0.00713052 -0.000144153)
(-0.00259559 0.00771292 -0.000130622)
(-0.00398207 0.00763642 -0.00011651)
(-0.0053718 0.00734776 -0.000106838)
(-0.00672219 0.00694013 -9.99066e-05)
(-0.00801806 0.00642103 -9.50699e-05)
(-0.00924489 0.00577905 -9.28542e-05)
(-0.0103831 0.00499537 -9.41771e-05)
(-0.0114057 0.00404552 -0.000100217)
(-0.0122739 0.00290081 -0.000112354)
(-0.0129329 0.00153172 -0.000132374)
(-0.0133114 -8.6201e-05 -0.000162077)
(-0.0133066 -0.00195928 -0.000200353)
(-0.0127888 -0.00406894 -0.000247284)
(-0.0116218 -0.00632778 -0.000297801)
(-0.0096855 -0.0085414 -0.0003382)
(-0.00702044 -0.0102874 -0.00034545)
(-0.00358291 -0.0106054 -0.00030201)
(-0.000812792 -0.00691704 -0.000106835)
(-0.000198405 0.00528657 -0.000192226)
(-0.00121951 0.00868061 -0.000171974)
(-0.00277581 0.00938835 -0.000158422)
(-0.00426325 0.00930314 -0.000143344)
(-0.00575854 0.00897181 -0.000132788)
(-0.0072199 0.00850983 -0.000125216)
(-0.00863791 0.00792843 -0.000120191)
(-0.0100046 0.00721524 -0.000118479)
(-0.0113076 0.00634744 -0.000121296)
(-0.0125263 0.00529272 -0.000130245)
(-0.013627 0.00400944 -0.000147325)
(-0.0145553 0.00244879 -0.000174935)
(-0.0152265 0.000560848 -0.000215003)
(-0.0155198 -0.00168918 -0.000274624)
(-0.0152594 -0.00431828 -0.000348104)
(-0.014223 -0.00725322 -0.000431857)
(-0.0121829 -0.0102697 -0.000507738)
(-0.00907863 -0.0128099 -0.000540838)
(-0.00481494 -0.0135203 -0.000495294)
(-0.00116449 -0.00900642 -0.000235918)
(-0.000206046 0.00632074 -0.000225154)
(-0.00130487 0.0103824 -0.000207968)
(-0.00298649 0.0112255 -0.000194239)
(-0.00458543 0.0111299 -0.000177476)
(-0.0061938 0.0107558 -0.000165165)
(-0.00777122 0.0102452 -0.000156091)
(-0.00931607 0.00961503 -0.000150155)
(-0.0108296 0.00885375 -0.000148474)
(-0.0123099 0.00793588 -0.000152684)
(-0.0137485 0.00682196 -0.000165009)
(-0.0151232 0.00545642 -0.000188431)
(-0.0163875 0.00376666 -0.00022659)
(-0.017456 0.00166663 -0.000283208)
(-0.0181949 -0.000933965 -0.000374357)
(-0.018375 -0.0040983 -0.000490654)
(-0.0176665 -0.00782268 -0.000632805)
(-0.0156782 -0.0118869 -0.000777611)
(-0.0121341 -0.0155924 -0.000872614)
(-0.0068283 -0.0170309 -0.00084159)
(-0.00181588 -0.0117542 -0.000504199)
(-0.000216871 0.00746619 -0.000267781)
(-0.00140926 0.0122684 -0.000255247)
(-0.00323463 0.0132527 -0.000240905)
(-0.00495314 0.0131379 -0.000221103)
(-0.00667674 0.0127146 -0.000205419)
(-0.00836743 0.0121562 -0.000193217)
(-0.0100336 0.0114888 -0.000184928)
(-0.0116884 0.010704 -0.000182148)
(-0.0133447 0.00977704 -0.000187074)
(-0.0150119 0.00866438 -0.000202811)
(-0.0166893 0.00729897 -0.000233886)
(-0.0183533 0.00558387 -0.000286591)
(-0.0199368 0.00338763 -0.000370388)
(-0.0212984 0.000548803 -0.000496991)
(-0.0221814 -0.0030909 -0.000684789)
(-0.0221469 -0.00766562 -0.000928049)
(-0.0205632 -0.0130432 -0.00120426)
(-0.0167546 -0.0184316 -0.00143972)
(-0.0102939 -0.0211894 -0.0014871)
(-0.00310332 -0.0155394 -0.0011103)
(-0.000235183 0.00875595 -0.000324233)
(-0.0015449 0.0143815 -0.000318508)
(-0.00353633 0.0155038 -0.000302533)
(-0.0053797 0.0153485 -0.000277209)
(-0.0072139 0.014858 -0.00025528)
(-0.00900484 0.0142437 -0.000237094)
(-0.0107733 0.0135438 -0.000223877)
(-0.0125467 0.0127572 -0.000217831)
(-0.0143558 0.0118645 -0.000221826)
(-0.0162338 0.0108253 -0.000240059)
(-0.0182123 0.00956902 -0.000279071)
(-0.0203091 0.00798198 -0.000349008)
(-0.0225042 0.0058896 -0.000464803)
(-0.0246936 0.00304267 -0.000644698)
(-0.026642 -0.000879532 -0.000939605)
(-0.0278273 -0.00618456 -0.00134495)
(-0.0273427 -0.0130456 -0.00185772)
(-0.023866 -0.0207218 -0.00238951)
(-0.0165515 -0.0257619 -0.00270912)
(-0.00578528 -0.0210684 -0.00254115)
(-0.000270765 0.0102434 -0.000401592)
(-0.00173692 0.0167829 -0.000405273)
(-0.00392331 0.0180212 -0.000385463)
(-0.00589334 0.017783 -0.000350066)
(-0.00782461 0.017189 -0.000316844)
(-0.00969003 0.0164954 -0.000287805)
(-0.0115253 0.0157552 -0.000265319)
(-0.0133731 0.0149782 -0.000252261)
(-0.0152828 0.014157 -0.000252185)
(-0.0173146 0.0132651 -0.00027043)
(-0.0195413 0.0122461 -0.000315843)
(-0.022044 0.0109929 -0.000403326)
(-0.0248925 0.0093145 -0.000556635)
(-0.0280975 0.0068872 -0.000810832)
(-0.0314964 0.00320756 -0.0012144)
(-0.0346605 -0.00238777 -0.00185777)
(-0.0365141 -0.0105346 -0.00274501)
(-0.0348078 -0.021005 -0.00382179)
(-0.0281077 -0.0298858 -0.00486937)
(-0.0115672 -0.0293866 -0.00577955)
(-0.000345743 0.0120215 -0.000512904)
(-0.00203558 0.0195631 -0.000528009)
(-0.00445387 0.0208573 -0.000499282)
(-0.00654611 0.02046 -0.000445323)
(-0.00854821 0.0197015 -0.000392194)
(-0.0104464 0.0188845 -0.000344323)
(-0.0122942 0.0180759 -0.000305532)
(-0.0141484 0.017299 -0.000279306)
(-0.0160724 0.0165652 -0.000269679)
(-0.0181485 0.015875 -0.000282671)
(-0.0204889 0.0152087 -0.000328782)
(-0.0232469 0.0145036 -0.000426598)
(-0.0266217 0.0136088 -0.000607683)
(-0.0308358 0.0121951 -0.000920884)
(-0.0360572 0.00963693 -0.00143335)
(-0.0421577 0.00483284 -0.00225843)
(-0.0482269 -0.00368019 -0.00357384)
(-0.0511094 -0.0169093 -0.00528594)
(-0.0480843 -0.0319419 -0.00733453)
(-0.0227187 -0.0429967 -0.010738)
(-0.000510961 0.0142496 -0.000685876)
(-0.00254687 0.0228972 -0.000717827)
(-0.00523471 0.0241575 -0.000673955)
(-0.00742349 0.0234903 -0.000585208)
(-0.00944805 0.0224496 -0.000492361)
(-0.0113196 0.0214041 -0.000407215)
(-0.0131092 0.0204472 -0.000337459)
(-0.0148804 0.019618 -0.000287462)
(-0.0167017 0.0189484 -0.000260285)
(-0.0186642 0.0184761 -0.000261046)
(-0.0209038 0.0182469 -0.000300175)
(-0.0236328 0.0182987 -0.000396998)
(-0.0271906 0.01862 -0.000584167)
(-0.0320838 0.0190194 -0.000907596)
(-0.0390227 0.0189243 -0.00140216)
(-0.0487701 0.0168495 -0.00203813)
(-0.0611346 0.00997463 -0.00282922)
(-0.0720691 -0.00678837 -0.00358544)
(-0.0769737 -0.0341356 -0.00421871)
(-0.0390517 -0.0716532 -0.0113758)
(-0.000826352 0.0173696 -0.000960148)
(-0.00335703 0.0266583 -0.00096175)
(-0.00637464 0.0274938 -0.000869749)
(-0.00865685 0.0262519 -0.000710073)
(-0.010673 0.0248453 -0.000561257)
(-0.0124388 0.0235964 -0.000430419)
(-0.0140614 0.0225359 -0.000323208)
(-0.0156211 0.0216693 -0.000242322)
(-0.0171792 0.0210347 -0.000189464)
(-0.0188034 0.0207106 -0.000167671)
(-0.0206034 0.0208359 -0.000181273)
(-0.0227844 0.0215957 -0.000235769)
(-0.0257645 0.0232198 -0.000331922)
(-0.0303161 0.0258065 -0.000421874)
(-0.0379268 0.0290996 -0.00029304)
(-0.0507873 0.0309515 0.000639893)
(-0.0714555 0.0267017 0.00304551)
(-0.094226 0.00176105 0.00784576)
(-0.11034 -0.0522515 0.013222)
(-0.0531499 -0.136264 -0.00246582)
(-0.00210522 0.0207401 -0.00149663)
(-0.00579348 0.0325826 -0.00160374)
(-0.00855212 0.0330332 -0.00140462)
(-0.0105291 0.0313083 -0.00111271)
(-0.0121385 0.0291082 -0.000803377)
(-0.0135893 0.0270773 -0.000530521)
(-0.0149558 0.0253487 -0.000309056)
(-0.0162556 0.0239738 -0.000143486)
(-0.0174821 0.0230044 -3.00922e-05)
(-0.0186268 0.0225316 3.51871e-05)
(-0.0197166 0.022759 5.50326e-05)
(-0.0208577 0.0239993 4.92882e-05)
(-0.022422 0.0268172 0.000101808)
(-0.0252018 0.0316372 0.000484395)
(-0.0316199 0.0388216 0.0019623)
(-0.0450644 0.0447039 0.00639086)
(-0.0739213 0.0415092 0.0156557)
(-0.109202 -0.00467931 0.0285143)
(-0.137312 -0.110871 0.0327996)
(-0.0547368 -0.240942 -0.00319208)
(-0.0014077 0.0322553 -0.00252801)
(-0.00573387 0.0364665 -0.00212763)
(-0.010606 0.0349031 -0.0017353)
(-0.0128486 0.031212 -0.00110096)
(-0.0146947 0.028518 -0.000602123)
(-0.0157789 0.0264464 -0.000187722)
(-0.0164992 0.0248511 0.000129492)
(-0.0170035 0.0235889 0.000347164)
(-0.0173362 0.0226739 0.000487897)
(-0.0174328 0.0221555 0.000562739)
(-0.0172064 0.0222992 0.000590024)
(-0.0164814 0.0233754 0.000626657)
(-0.0154436 0.0263122 0.000861391)
(-0.0142858 0.0312275 0.00184572)
(-0.0164262 0.0402364 0.00504151)
(-0.024221 0.0459057 0.0132532)
(-0.0569882 0.0385587 0.028928)
(-0.0980104 -0.040424 0.0423799)
(-0.138277 -0.195966 0.0304898)
(-0.0451113 -0.337334 -0.0284789)
(-0.0120511 0.0304129 -0.00351267)
(-0.0214053 0.0525183 -0.00393925)
(-0.0168557 0.048225 -0.00327589)
(-0.0172203 0.0433239 -0.00221871)
(-0.0154986 0.0376197 -0.0010856)
(-0.0137838 0.0328794 -0.000177519)
(-0.0121033 0.0290743 0.000491856)
(-0.0105199 0.0260635 0.000931257)
(-0.00898746 0.0237737 0.00119741)
(-0.007256 0.0220665 0.00130042)
(-0.00530495 0.0210927 0.00128776)
(-0.00243939 0.0209738 0.00120897)
(0.000732649 0.0225651 0.00130999)
(0.00650679 0.0260369 0.00223505)
(0.00910197 0.0339259 0.00553101)
(0.0157218 0.0396382 0.0138261)
(-0.00345693 0.030065 0.028638)
(-0.0209476 -0.0655785 0.0382341)
(-0.0904257 -0.239605 0.0144776)
(-0.0252398 -0.386322 -0.0543999)
(-0.0462995 0.0894508 -0.0116401)
(-0.0301843 0.0430752 -0.0072878)
(-0.0213804 0.0368096 -0.00465432)
(-0.00413553 0.0298093 -0.00212145)
(0.00998826 0.0236249 -0.000327271)
(0.0233593 0.0195875 0.00094622)
(0.0344566 0.0170105 0.00184292)
(0.0439777 0.0150689 0.00241425)
(0.0516923 0.0137335 0.00276254)
(0.0587563 0.0125723 0.0028595)
(0.0644337 0.012051 0.00276064)
(0.0711606 0.0115577 0.00238404)
(0.0763956 0.0120586 0.00202984)
(0.0875302 0.0124018 0.00150609)
(0.0924239 0.0128055 0.00267798)
(0.118026 0.00940935 0.00606189)
(0.106513 -0.00654702 0.0125308)
(0.138509 -0.0809036 0.0236076)
(0.019641 -0.233655 0.00145787)
(0.0267112 -0.369452 -0.0657431)
(0.117637 0.111665 -0.0112104)
(0.144317 0.0595436 -0.0115645)
(0.216779 0.0394814 -0.0109743)
(0.261111 0.0264796 -0.00944203)
(0.293686 0.0178186 -0.00764473)
(0.32022 0.012059 -0.00609932)
(0.340538 0.00849056 -0.00457101)
(0.358133 0.00619047 -0.00335743)
(0.37035 0.00477022 -0.00215883)
(0.38338 0.00389228 -0.00123129)
(0.389499 0.00330026 -0.000503816)
(0.402089 0.00318021 0.000251918)
(0.401482 0.00285915 0.000111699)
(0.419614 0.00311094 0.00106373)
(0.407542 0.00229533 0.000302365)
(0.437235 -0.000232202 0.00159147)
(0.395995 -0.00792354 0.0018991)
(0.419859 -0.0301467 0.000711328)
(0.256463 -0.0730805 -0.00747013)
(0.166394 -0.139805 -0.0748312)
(-0.000106725 0.000114683 -4.83201e-05)
(-0.000765387 0.000311596 -1.25262e-06)
(-0.00181465 0.00036064 1.76676e-05)
(-0.00281118 0.000361694 2.75601e-05)
(-0.00378839 0.000349741 2.83676e-05)
(-0.00471016 0.000332008 2.32116e-05)
(-0.0055556 0.000307985 1.36198e-05)
(-0.00630382 0.000275912 -1.16286e-07)
(-0.00693036 0.000234126 -1.81809e-05)
(-0.00740766 0.00018107 -4.07372e-05)
(-0.00770631 0.00011539 -6.74821e-05)
(-0.0077967 3.71073e-05 -9.80502e-05)
(-0.00764957 -5.43188e-05 -0.000131719)
(-0.00723987 -0.000156158 -0.000167256)
(-0.00655232 -0.000263929 -0.000202042)
(-0.00558481 -0.000370728 -0.000232109)
(-0.00435813 -0.000465211 -0.00025091)
(-0.00294735 -0.000525454 -0.000249288)
(-0.00134833 -0.000495406 -0.000220903)
(-0.0002429 -0.000224588 -0.000107864)
(-0.000314936 0.000809391 -0.000138997)
(-0.0015911 0.00159402 -0.000101438)
(-0.0034327 0.00177615 -7.93301e-05)
(-0.00518455 0.00175764 -6.13206e-05)
(-0.00688131 0.00167355 -5.17522e-05)
(-0.0084611 0.00155356 -4.78397e-05)
(-0.00988474 0.00139943 -4.80649e-05)
(-0.0111157 0.00120781 -5.23732e-05)
(-0.0121149 0.000974969 -6.11523e-05)
(-0.0128416 0.00069766 -7.48698e-05)
(-0.0132534 0.000373524 -9.3818e-05)
(-0.0133106 1.9124e-06 -0.000117947)
(-0.012975 -0.000411418 -0.000146904)
(-0.0122145 -0.000855488 -0.000178445)
(-0.0110131 -0.00131221 -0.00021012)
(-0.00937447 -0.00175403 -0.000237238)
(-0.00733737 -0.00213714 -0.00025166)
(-0.00501414 -0.00237673 -0.000242874)
(-0.00241092 -0.00226324 -0.000204806)
(-0.000509609 -0.00122732 -6.92093e-05)
(-0.000383297 0.00195042 -0.000183472)
(-0.00187847 0.00352082 -0.000152035)
(-0.00400381 0.00386777 -0.000128833)
(-0.00601745 0.0038058 -0.00010692)
(-0.00796163 0.00360247 -9.29475e-05)
(-0.00976733 0.00331747 -8.43047e-05)
(-0.0113915 0.00295745 -7.9606e-05)
(-0.0127942 0.00251893 -7.90489e-05)
(-0.0139332 0.00199697 -8.32829e-05)
(-0.0147644 0.00138727 -9.30248e-05)
(-0.0152436 0.000687616 -0.000108825)
(-0.0153238 -0.000100611 -0.00013122)
(-0.0149589 -0.000967585 -0.000159088)
(-0.0141119 -0.00189139 -0.000191437)
(-0.0127593 -0.0028359 -0.000225273)
(-0.0108974 -0.00374579 -0.000255179)
(-0.00856241 -0.00453395 -0.00027151)
(-0.00587811 -0.00503086 -0.000261822)
(-0.00284706 -0.00482266 -0.000219376)
(-0.00061041 -0.00277909 -6.71977e-05)
(-0.000407117 0.00311573 -0.000220498)
(-0.00200383 0.00550449 -0.000195427)
(-0.00427277 0.00601659 -0.000171934)
(-0.00641876 0.00590724 -0.000147459)
(-0.00849385 0.0055834 -0.000130506)
(-0.0104268 0.00513486 -0.00011863)
(-0.0121752 0.00457239 -0.000110615)
(-0.0136991 0.00389176 -0.000106911)
(-0.014956 0.00308605 -0.000108455)
(-0.0159 0.00214849 -0.000116289)
(-0.0164823 0.00107507 -0.000131341)
(-0.0166519 -0.000131415 -0.000154451)
(-0.016352 -0.00146189 -0.000185739)
(-0.0155279 -0.00288677 -0.000222852)
(-0.0141388 -0.00435454 -0.000262972)
(-0.0121624 -0.00578213 -0.000299926)
(-0.00962053 -0.00703388 -0.000322232)
(-0.00664418 -0.00784179 -0.000314392)
(-0.00323154 -0.00755895 -0.000267655)
(-0.000693361 -0.00442684 -9.11208e-05)
(-0.00042546 0.00435948 -0.000255018)
(-0.00211415 0.00762544 -0.000235738)
(-0.00452092 0.00831317 -0.000212114)
(-0.00679732 0.00815594 -0.000185769)
(-0.00900568 0.00770983 -0.000166896)
(-0.0110738 0.00709661 -0.000153183)
(-0.0129613 0.00633146 -0.000143587)
(-0.0146301 0.00540903 -0.000138813)
(-0.0160384 0.00431939 -0.000140116)
(-0.017139 0.0030515 -0.000148928)
(-0.0178785 0.00159622 -0.000166602)
(-0.0181976 -4.9283e-05 -0.000194293)
(-0.0180249 -0.00187475 -0.000233563)
(-0.0172832 -0.00385163 -0.000281287)
(-0.0159025 -0.00591634 -0.00033473)
(-0.0138271 -0.00795779 -0.000386381)
(-0.011048 -0.00978234 -0.000421483)
(-0.00769765 -0.0109971 -0.000419487)
(-0.00377145 -0.0106703 -0.000367204)
(-0.000813664 -0.0063087 -0.000150268)
(-0.000448481 0.00568245 -0.000292916)
(-0.0022491 0.0098927 -0.000279559)
(-0.00482347 0.01077 -0.000255856)
(-0.00725919 0.0105662 -0.000227806)
(-0.00963048 0.00999873 -0.000207376)
(-0.0118646 0.00922404 -0.000192416)
(-0.0139246 0.00826214 -0.000182108)
(-0.015776 0.00710617 -0.00017747)
(-0.0173794 0.00574193 -0.000180147)
(-0.018688 0.00415156 -0.000192095)
(-0.019645 0.00231669 -0.00021525)
(-0.0201803 0.00022345 -0.00025117)
(-0.0202064 -0.00212698 -0.000304687)
(-0.019617 -0.00471528 -0.000370544)
(-0.0182972 -0.00747329 -0.000446945)
(-0.0161385 -0.0102641 -0.000524793)
(-0.013076 -0.0128252 -0.000584394)
(-0.00922646 -0.0146018 -0.00059639)
(-0.00457831 -0.0142924 -0.00053847)
(-0.00100285 -0.00852158 -0.000258447)
(-0.000478106 0.00710412 -0.000338831)
(-0.00241764 0.0123389 -0.000332611)
(-0.00519732 0.0134218 -0.000308786)
(-0.00782627 0.0131721 -0.00027862)
(-0.0103933 0.0124839 -0.00025622)
(-0.0128255 0.0115519 -0.000239711)
(-0.0150916 0.010402 -0.000228628)
(-0.0171632 0.00902589 -0.000224434)
(-0.0190061 0.00740387 -0.000229335)
(-0.0205771 0.00550852 -0.000246065)
(-0.0218189 0.00330724 -0.000277691)
(-0.0226528 0.000767903 -0.000328039)
(-0.0229749 -0.00213114 -0.000401184)
(-0.0226425 -0.00539195 -0.00049539)
(-0.0214802 -0.00895932 -0.000609588)
(-0.0192982 -0.0126817 -0.00073292)
(-0.015934 -0.0162206 -0.000838597)
(-0.0114457 -0.0188093 -0.000882317)
(-0.00580058 -0.018637 -0.000822556)
(-0.0013098 -0.0112363 -0.000447962)
(-0.000514927 0.00864904 -0.000396549)
(-0.00262321 0.0150048 -0.000399646)
(-0.00564858 0.0163099 -0.000375428)
(-0.00850415 0.0160118 -0.000342075)
(-0.0112971 0.0152007 -0.000316459)
(-0.0139554 0.0141146 -0.00029719)
(-0.0164559 0.0127872 -0.000284356)
(-0.0187797 0.0112093 -0.000280061)
(-0.0209027 0.00935564 -0.000287303)
(-0.022791 0.00718694 -0.000309925)
(-0.0243922 0.00465119 -0.000352648)
(-0.0256255 0.00168809 -0.000421289)
(-0.0263739 -0.00176097 -0.000520985)
(-0.026457 -0.00574534 -0.000661482)
(-0.0256233 -0.0102494 -0.000837121)
(-0.0235644 -0.0151362 -0.00103861)
(-0.0199558 -0.0199974 -0.0012305)
(-0.0147029 -0.0237993 -0.00134477)
(-0.00771861 -0.0239988 -0.00129735)
(-0.0018409 -0.0147386 -0.000787744)
(-0.000560373 0.0103449 -0.000470428)
(-0.00287121 0.0179348 -0.000486058)
(-0.00618531 0.0194766 -0.000460755)
(-0.00929922 0.0191214 -0.000422193)
(-0.0123436 0.0181798 -0.000390965)
(-0.0152484 0.0169399 -0.000366494)
(-0.0180023 0.0154457 -0.000349719)
(-0.0206004 0.0136897 -0.000343627)
(-0.0230348 0.0116418 -0.000352273)
(-0.0252887 0.00925029 -0.000381019)
(-0.0273255 0.00643975 -0.000436919)
(-0.0290735 0.00311121 -0.000529021)
(-0.0304182 -0.00085333 -0.000668235)
(-0.0311477 -0.00556771 -0.000875235)
(-0.0309243 -0.0111186 -0.00114675)
(-0.0292848 -0.0174409 -0.00148028)
(-0.0256531 -0.0240998 -0.00183205)
(-0.0196039 -0.0297485 -0.00209989)
(-0.010921 -0.0307911 -0.00211034)
(-0.00284856 -0.0195641 -0.00143024)
(-0.000617864 0.0122261 -0.000566542)
(-0.00317252 0.0211807 -0.000599135)
(-0.00682305 0.022967 -0.000571262)
(-0.0102249 0.0225349 -0.000523943)
(-0.0135394 0.0214456 -0.000482921)
(-0.0167004 0.0200455 -0.000448962)
(-0.0197125 0.0183933 -0.000424256)
(-0.0225906 0.0164864 -0.000412951)
(-0.0253501 0.0142933 -0.000420438)
(-0.0280019 0.0117524 -0.000454057)
(-0.0305413 0.00876472 -0.000524141)
(-0.03293 0.00518636 -0.000644657)
(-0.0350667 0.000823023 -0.000833743)
(-0.0367476 -0.00454605 -0.00112843)
(-0.0375796 -0.0111847 -0.00154995)
(-0.0369094 -0.019206 -0.00210169)
(-0.0338129 -0.0282704 -0.00274454)
(-0.0272548 -0.0367292 -0.00333687)
(-0.0167277 -0.0395716 -0.00355147)
(-0.00496763 -0.0268249 -0.00274388)
(-0.000694627 0.0143394 -0.000694219)
(-0.00354795 0.0248064 -0.000749593)
(-0.0075906 0.0268309 -0.00071618)
(-0.0113072 0.0262836 -0.000654002)
(-0.0149012 0.0250137 -0.000596157)
(-0.0183132 0.0234352 -0.000545562)
(-0.021569 0.0216268 -0.000506221)
(-0.0247085 0.0195958 -0.000483708)
(-0.027778 0.0173153 -0.000484925)
(-0.0308276 0.0147211 -0.000519516)
(-0.0339034 0.0116978 -0.000601994)
(-0.0370294 0.00806021 -0.000754403)
(-0.0401698 0.00352969 -0.00101027)
(-0.0431951 -0.00228407 -0.00141361)
(-0.0457247 -0.00986307 -0.00204506)
(-0.0469713 -0.0196933 -0.00293116)
(-0.04562 -0.0317902 -0.00407405)
(-0.0396941 -0.044375 -0.00531101)
(-0.0280555 -0.0509198 -0.00613715)
(-0.00979963 -0.0391135 -0.00560958)
(-0.00080525 0.0167543 -0.000868638)
(-0.00403589 0.0288955 -0.000953943)
(-0.00853869 0.0311257 -0.000909333)
(-0.0125928 0.0303956 -0.000821815)
(-0.0164625 0.0288874 -0.000735429)
(-0.0201006 0.0270935 -0.000656571)
(-0.02356 0.0251172 -0.000591823)
(-0.0269103 0.0229813 -0.000548354)
(-0.0302336 0.0206722 -0.00053449)
(-0.0336293 0.0181366 -0.000562001)
(-0.0372139 0.015263 -0.000649623)
(-0.0411136 0.0118493 -0.000828208)
(-0.0454366 0.00755087 -0.00114637)
(-0.0502068 0.0018075 -0.00167448)
(-0.0552485 -0.00618072 -0.00253253)
(-0.0599212 -0.0174804 -0.0038699)
(-0.0626351 -0.032909 -0.00574356)
(-0.0602262 -0.0511579 -0.00804608)
(-0.0502522 -0.0651277 -0.0102657)
(-0.0206668 -0.0618074 -0.0114493)
(-0.000979545 0.0195803 -0.00111568)
(-0.00470549 0.0335527 -0.0012377)
(-0.00975248 0.035897 -0.00117023)
(-0.0141595 0.0348713 -0.00103925)
(-0.0182825 0.033041 -0.000905593)
(-0.0220957 0.0309763 -0.000780456)
(-0.0256873 0.028803 -0.000673697)
(-0.0291587 0.0265635 -0.000594097)
(-0.0326273 0.0242691 -0.00055088)
(-0.0362409 0.0218958 -0.000556578)
(-0.0401946 0.0193665 -0.000631814)
(-0.0447475 0.0165094 -0.000812607)
(-0.0502321 0.0129788 -0.00116033)
(-0.0570261 0.0081174 -0.00177182)
(-0.0654846 0.000803536 -0.00278299)
(-0.075635 -0.0106595 -0.00441316)
(-0.0859846 -0.0284657 -0.00686065)
(-0.0915907 -0.0537515 -0.00988034)
(-0.0866059 -0.0823704 -0.0132468)
(-0.0377888 -0.106694 -0.0184143)
(-0.00128861 0.0229972 -0.00148627)
(-0.00571519 0.0390508 -0.00166169)
(-0.0113898 0.0414043 -0.00155702)
(-0.0161232 0.0399322 -0.00135046)
(-0.0204372 0.0376005 -0.00112986)
(-0.0243459 0.0351078 -0.000920611)
(-0.0279717 0.0326286 -0.000740354)
(-0.0314397 0.0302318 -0.00059992)
(-0.0348933 0.0279559 -0.000506967)
(-0.0385196 0.0258234 -0.000471258)
(-0.0425828 0.0238387 -0.000510241)
(-0.0474788 0.0219497 -0.000655986)
(-0.0538158 0.0199588 -0.000962693)
(-0.0624762 0.0173238 -0.00150146)
(-0.0746355 0.0128604 -0.00229716)
(-0.0914726 0.0040511 -0.00316596)
(-0.111666 -0.0142181 -0.00368537)
(-0.126132 -0.0510705 -0.00295165)
(-0.125074 -0.11022 -0.00226616)
(-0.046499 -0.189822 -0.0153859)
(-0.00172829 0.0274589 -0.00204172)
(-0.00699056 0.0448113 -0.00219218)
(-0.0135319 0.0466346 -0.00199516)
(-0.0186633 0.0443247 -0.00165023)
(-0.0231664 0.0414908 -0.00131331)
(-0.0270532 0.0387103 -0.00100089)
(-0.0305373 0.0360712 -0.000729462)
(-0.0337948 0.0336078 -0.000508235)
(-0.0369825 0.0313814 -0.000343035)
(-0.04028 0.0294831 -0.000237828)
(-0.0439511 0.0280479 -0.00019304)
(-0.0484459 0.0272338 -0.000204003)
(-0.0545664 0.0271917 -0.0002427)
(-0.063638 0.0277859 -0.000157751)
(-0.0777479 0.0280657 0.00061206)
(-0.099101 0.0239719 0.00355059)
(-0.125942 0.00528 0.0109299)
(-0.14177 -0.0515618 0.0240453)
(-0.142165 -0.15562 0.0319487)
(-0.0334738 -0.293882 -0.0032416)
(-0.00374921 0.0318387 -0.00302341)
(-0.011042 0.0541923 -0.00339431)
(-0.0172419 0.0555867 -0.00301798)
(-0.0220882 0.0525847 -0.00244586)
(-0.0261434 0.0484594 -0.00181748)
(-0.0297493 0.0444539 -0.0012364)
(-0.0330001 0.0408119 -0.000737386)
(-0.0359836 0.0376235 -0.000335474)
(-0.0387776 0.0349765 -3.02324e-05)
(-0.0414928 0.0329901 0.000187041)
(-0.0443156 0.0319155 0.000340115)
(-0.0475802 0.0321529 0.000500616)
(-0.0519978 0.0343791 0.000892886)
(-0.0587647 0.0389626 0.0021704)
(-0.0701329 0.0452532 0.00610287)
(-0.0875358 0.0459433 0.016467)
(-0.112142 0.0263464 0.0369245)
(-0.123084 -0.0535465 0.0622355)
(-0.13255 -0.20291 0.0617916)
(-0.0124634 -0.381331 -0.00910728)
(-0.00188918 0.0465635 -0.00484064)
(-0.00975729 0.0579899 -0.00451742)
(-0.0206196 0.0568684 -0.00377408)
(-0.0261301 0.0516456 -0.00263282)
(-0.0309767 0.0475854 -0.00168221)
(-0.0342543 0.044044 -0.000831907)
(-0.0366823 0.0409153 -0.000123909)
(-0.0385207 0.0380923 0.000434185)
(-0.0399265 0.0356806 0.000851711)
(-0.0409634 0.0337905 0.00114721)
(-0.0416624 0.0328249 0.00138223)
(-0.0419731 0.0332202 0.00172339)
(-0.042188 0.036189 0.00263153)
(-0.0423305 0.0418991 0.0053101)
(-0.0447799 0.0512607 0.0126248)
(-0.0476677 0.0527846 0.0291855)
(-0.0646049 0.0343538 0.0582543)
(-0.0674771 -0.0590111 0.0826055)
(-0.0932057 -0.241775 0.058986)
(0.0131208 -0.445919 -0.0348352)
(-0.0118675 0.0383556 -0.00625271)
(-0.0259618 0.0812217 -0.00724143)
(-0.0263289 0.0776391 -0.00633102)
(-0.0329658 0.0711209 -0.00460945)
(-0.0349067 0.0629028 -0.00267652)
(-0.035356 0.0555455 -0.00102494)
(-0.0344727 0.0492333 0.000286936)
(-0.0327955 0.0439244 0.00126235)
(-0.0305995 0.0395729 0.00194194)
(-0.0278648 0.0360366 0.00234324)
(-0.0248761 0.0335906 0.00256208)
(-0.0209184 0.0324404 0.0027514)
(-0.0168417 0.0339939 0.00343951)
(-0.00930774 0.0381687 0.00589051)
(-0.0038077 0.048037 0.0125729)
(0.013608 0.0528029 0.0276077)
(0.0139061 0.0426373 0.0504901)
(0.0443198 -0.0441502 0.0698694)
(-0.00286991 -0.24957 0.0365451)
(0.0616558 -0.466112 -0.0562815)
(-0.0753332 0.102051 -0.0173107)
(-0.0609012 0.0636836 -0.0118675)
(-0.0602107 0.0612571 -0.0080376)
(-0.0392798 0.0529317 -0.00439471)
(-0.0212963 0.0447452 -0.00177794)
(-0.00197976 0.0386048 0.000304684)
(0.0157419 0.0340464 0.0019841)
(0.0325701 0.0301473 0.00323765)
(0.047377 0.0271639 0.00413468)
(0.061826 0.0242804 0.00463354)
(0.0736998 0.0225232 0.00476936)
(0.0872216 0.0206115 0.0044714)
(0.0962268 0.0206214 0.00422223)
(0.114802 0.0205888 0.00366355)
(0.120121 0.0211146 0.00567296)
(0.1606 0.0192718 0.0117035)
(0.156482 -0.00419432 0.0167902)
(0.216846 -0.056239 0.0323285)
(0.150658 -0.234106 0.0121793)
(0.147252 -0.419459 -0.0714467)
(0.119477 0.139875 -0.0162971)
(0.151853 0.0858876 -0.0173232)
(0.230457 0.063711 -0.0167933)
(0.284782 0.0484048 -0.0150088)
(0.326676 0.037508 -0.0127553)
(0.364038 0.0294216 -0.0107457)
(0.393299 0.023713 -0.00863817)
(0.422831 0.019513 -0.00679131)
(0.442563 0.0162447 -0.00502908)
(0.468605 0.0139163 -0.0033208)
(0.479556 0.0118379 -0.00209789)
(0.506373 0.0105037 -0.000688587)
(0.507405 0.00918026 -2.29448e-05)
(0.539555 0.00860542 0.000660908)
(0.528792 0.00733571 0.00178572)
(0.567228 0.00499969 0.00114466)
(0.536374 -0.00337621 0.00446445)
(0.557813 -0.0236734 -0.00182317)
(0.432928 -0.0725258 -0.00716765)
(0.301938 -0.148942 -0.0831904)
(-0.00011868 0.000118786 -6.5459e-05)
(-0.000854484 0.000344074 -5.2858e-05)
(-0.00202475 0.000400409 -4.05795e-05)
(-0.00313014 0.000400894 -3.11535e-05)
(-0.00420827 0.000385838 -2.7811e-05)
(-0.00521976 0.000363823 -2.9321e-05)
(-0.00614251 0.0003346 -3.50339e-05)
(-0.00695401 0.00029638 -4.48798e-05)
(-0.00762822 0.000247376 -5.88972e-05)