/*--------------------------------*- C++ -*----------------------------------*\
  =========                 |
  \\      /  F ield         | OpenFOAM: The Open Source CFD Toolbox
   \\    /   O peration     | Website:  https://openfoam.org
    \\  /    A nd           | Version:  10
     \\/     M anipulation  |
\*---------------------------------------------------------------------------*/
FoamFile
{
    format      ascii;
    class       volScalarField;
    location    "1.025";
    object      p;
}
// * * * * * * * * * * * * * * * * * * * * * * * * * * * * * * * * * * * * * //

dimensions      [0 2 -2 0 0 0 0];

internalField   nonuniform List<scalar> 
400
(
-8.98116e-10
3.58331e-05
0.000159046
0.00035495
0.000619579
0.000946692
0.00132842
0.00175555
0.00221764
0.00270325
0.00320008
0.00369527
0.00417561
0.00462784
0.00503904
0.00539701
0.00569072
0.00591089
0.00605104
0.00609449
-3.5945e-05
-1.68123e-07
0.000124389
0.000322174
0.000589395
0.000919824
0.00130557
0.00173735
0.00220469
0.00269604
0.00319901
0.00370063
0.0041875
0.00464618
0.00506353
0.00542709
0.00572556
0.00594944
0.00609222
0.00613616
-0.000161321
-0.000124824
4.3474e-06
0.000209548
0.00048688
0.000829909
0.00123049
0.00167909
0.0021649
0.00267606
0.00319987
0.00372282
0.00423106
0.0047106
0.00514762
0.00552894
0.00584248
0.00607798
0.00622835
0.00627433
-0.000368753
-0.000330472
-0.000193571
2.40037e-05
0.000318147
0.000682059
0.00110717
0.00158347
0.00209968
0.00264338
0.00320127
0.0037592
0.00430252
0.00481632
0.00528571
0.00569632
0.00603478
0.00628956
0.00645256
0.00650254
-0.000663313
-0.000622339
-0.000474392
-0.000239191
7.88325e-05
0.000472337
0.000932132
0.00144755
0.00200659
0.00259615
0.00320211
0.00380946
0.00440248
0.00496499
0.00548064
0.00593332
0.00630778
0.00659058
0.00677205
0.0068281
-0.00105254
-0.00100797
-0.000845372
-0.000586859
-0.000237333
0.000195105
0.000700421
0.00126707
0.00188218
0.00253174
0.0032007
0.003873
0.0045316
0.00515878
0.00573626
0.00624563
0.00666903
0.00699025
0.00719723
0.00726187
-0.00154626
-0.00149712
-0.00131587
-0.00102776
-0.000638364
-0.000156822
0.00040572
0.00103661
0.00172193
0.00244661
0.00319456
0.00394863
0.00469028
0.00539998
0.00605712
0.00664033
0.0071282
0.00750062
0.00774201
0.00781852
-0.00215709
-0.00210233
-0.00189783
-0.001573
-0.00113435
-0.000592432
4.01535e-05
0.000749385
0.0015201
0.00233611
0.00318026
0.00403434
0.00487833
0.00569073
0.00644823
0.00712582
0.00769739
0.00813734
0.0084248
0.00851775
-0.00290093
-0.00283934
-0.00260617
-0.00223631
-0.00173763
-0.00112261
-0.000405768
0.000397184
0.00126966
0.00219434
0.0031531
0.0041269
0.00509447
0.00603242
0.00691455
0.00771151
0.00839116
0.00892019
0.00926967
0.00938578
-0.00379775
-0.0037278
-0.00345933
-0.00303442
-0.00246299
-0.00176022
-0.000943135
-2.95772e-05
0.000962276
0.00201402
0.00310681
0.00422129
0.00533551
0.00642475
0.00745999
0.00840709
0.00922633
0.00987373
0.0103079
0.0104578
-0.00487272
-0.00479224
-0.00448002
-0.00398756
-0.00332791
-0.00252009
-0.00158452
-0.000541704
0.000588395
0.00178643
0.00303333
0.00431018
0.00559545
0.00686427
0.00808581
0.00922102
0.0102212
0.011028
0.0115803
0.0117821
-0.00615817
-0.00606352
-0.0056964
-0.00512007
-0.00435276
-0.00341894
-0.00234363
-0.00115074
0.000137685
0.00150166
0.00292261
0.00438326
0.00586424
0.00734259
0.00878788
0.0101578
0.0113936
0.0124186
0.0131398
0.0134267
-0.00769688
-0.00758109
-0.00714381
-0.00646132
-0.00556102
-0.00447491
-0.00323436
-0.0018679
-0.000400007
0.0011492
0.00276291
0.00442664
0.00612621
0.00784377
0.0095531
0.0112127
0.0127563
0.0140857
0.0150552
0.0154916
-0.00954926
-0.00939694
-0.00886764
-0.00804696
-0.0069793
-0.00570647
-0.00426929
-0.00270247
-0.00103311
0.000719118
0.00254109
0.00442263
0.0063586
0.00834085
0.0103537
0.0123642
0.014307
0.0160704
0.0174152
0.0181275
-0.0117881
-0.0115772
-0.0109273
-0.00992063
-0.00863675
-0.00713092
-0.00545784
-0.00365965
-0.00176619
0.000204293
0.00224356
0.00435052
0.0065307
0.00879223
0.0111395
0.0135614
0.0160099
0.0183999
0.0203113
0.0216018
-0.0146623
-0.0142587
-0.0134174
-0.012137
-0.0105643
-0.0087617
-0.00680224
-0.00473643
-0.00259593
-0.000395924
0.00186227
0.00418918
0.0066045
0.00913903
0.0118279
0.0147003
0.0177496
0.0210193
0.0237555
0.0263413
-0.0176538
-0.0173701
-0.016385
-0.0147472
-0.0127881
-0.0106018
-0.00829143
-0.0059158
-0.00350647
-0.0010723
0.00139615
0.00392139
0.0065381
0.00930141
0.0122821
0.0155722
0.0192233
0.0237385
0.0274744
0.0330239
-0.0243359
-0.0215526
-0.0202307
-0.0178719
-0.0153278
-0.0126219
-0.00987585
-0.00714646
-0.00445356
-0.00179134
0.000865834
0.00356672
0.00632538
0.00926699
0.0125215
0.0163485
0.0207898
0.0272125
0.0328476
0.0431057
-0.0280415
-0.027612
-0.0252948
-0.0221194
-0.0185893
-0.0150161
-0.0116293
-0.00844812
-0.00543652
-0.00255285
0.000245566
0.00300153
0.00580315
0.00868149
0.0116456
0.0152284
0.0179709
0.0265211
0.0288637
0.0520361
-0.0537203
-0.0293354
-0.027574
-0.0236299
-0.0194705
-0.0157179
-0.012233
-0.00894363
-0.00583975
-0.00288803
-4.20051e-05
0.00275214
0.00555442
0.00851214
0.011712
0.0161686
0.0215017
0.0344007
0.0507599
0.100683
)
;

boundaryField
{
    movingWall
    {
        type            zeroGradient;
    }
    fixedWalls
    {
        type            zeroGradient;
    }
    frontAndBack
    {
        type            empty;
    }
}


// ************************************************************************* //
