/*--------------------------------*- C++ -*----------------------------------*\
  =========                 |
  \\      /  F ield         | OpenFOAM: The Open Source CFD Toolbox
   \\    /   O peration     | Website:  https://openfoam.org
    \\  /    A nd           | Version:  10
     \\/     M anipulation  |
\*---------------------------------------------------------------------------*/
FoamFile
{
    format      ascii;
    class       surfaceScalarField;
    location    "3.175";
    object      phi;
}
// * * * * * * * * * * * * * * * * * * * * * * * * * * * * * * * * * * * * * //

dimensions      [0 3 -1 0 0 0 0];

internalField   nonuniform List<scalar> 
760
(
-1.10647e-05
1.10647e-05
-3.15526e-05
2.0488e-05
-5.33799e-05
2.18272e-05
-7.44083e-05
2.10284e-05
-9.39565e-05
1.95482e-05
-0.000111568
1.76112e-05
-0.000126807
1.5239e-05
-0.000139238
1.24312e-05
-0.00014843
9.19228e-06
-0.000153968
5.53778e-06
-0.000155466
1.49812e-06
-0.000152587
-2.8791e-06
-0.000145091
-7.49569e-06
-0.000132872
-1.22191e-05
-0.000116002
-1.68705e-05
-9.47811e-05
-2.12206e-05
-6.98228e-05
-2.49582e-05
-4.23283e-05
-2.74945e-05
-1.54962e-05
-2.68321e-05
-1.54962e-05
-2.11462e-05
3.22109e-05
-5.51059e-05
5.44476e-05
-9.06441e-05
5.73654e-05
-0.000124685
5.50696e-05
-0.000156104
5.09665e-05
-0.000184122
4.563e-05
-0.000208038
3.91551e-05
-0.000227188
3.15808e-05
-0.000240948
2.29519e-05
-0.000248739
1.33293e-05
-0.000250065
2.82344e-06
-0.000244511
-8.43313e-06
-0.000231789
-2.02177e-05
-0.00021183
-3.21771e-05
-0.000184822
-4.38789e-05
-0.000151278
-5.47646e-05
-0.000112156
-6.40807e-05
-6.92551e-05
-7.03951e-05
-2.70383e-05
-6.90489e-05
-4.25346e-05
-2.40291e-05
5.624e-05
-6.21015e-05
9.25201e-05
-0.000101773
9.70371e-05
-0.000139697
9.29935e-05
-0.000174662
8.59312e-05
-0.000205827
7.67956e-05
-0.000232435
6.57626e-05
-0.000253771
5.29173e-05
-0.000269168
3.83485e-05
-0.000278012
2.2173e-05
-0.000279758
4.57036e-06
-0.00027386
-1.43312e-05
-0.000260019
-3.40596e-05
-0.000238096
-5.40999e-05
-0.000208216
-7.37585e-05
-0.00017087
-9.21105e-05
-0.000127056
-0.000107895
-7.87458e-05
-0.000118706
-3.09334e-05
-0.000116861
-7.3468e-05
-2.55257e-05
8.17657e-05
-6.60731e-05
0.000133067
-0.000108294
0.000139258
-0.000148674
0.000133373
-0.000185969
0.000123227
-0.000219326
0.000110152
-0.00024797
9.4407e-05
-0.000271169
7.61168e-05
-0.000288224
5.54034e-05
-0.000298468
3.24171e-05
-0.00030129
7.39224e-06
-0.000296055
-1.95668e-05
-0.000282265
-4.78496e-05
-0.000259618
-7.67466e-05
-0.000228081
-0.000105295
-0.000188011
-0.000132181
-0.000140359
-0.000155546
-8.72588e-05
-0.000171806
-3.43217e-05
-0.000169798
-0.00010779
-2.72327e-05
0.000108998
-7.0647e-05
0.000176482
-0.000115867
0.000184478
-0.000159169
0.000176675
-0.000199275
0.000163333
-0.000235325
0.000146201
-0.000266538
0.00012562
-0.00029217
0.000101749
-0.000311494
7.47267e-05
-0.000323781
4.47049e-05
-0.000328307
1.1918e-05
-0.00032431
-2.35638e-05
-0.000311056
-6.11043e-05
-0.00028796
-9.98425e-05
-0.00025468
-0.000138575
-0.00021131
-0.00017555
-0.000158676
-0.00020818
-9.91025e-05
-0.00023138
-3.91009e-05
-0.0002298
-0.000146891
-2.94519e-05
0.00013845
-7.65467e-05
0.000223577
-0.000125611
0.000233543
-0.000172651
0.000223714
-0.000216346
0.000207028
-0.000255834
0.000185689
-0.000290345
0.00016013
-0.000319134
0.000130539
-0.000341456
9.70481e-05
-0.000356526
5.97747e-05
-0.000363503
1.88952e-05
-0.000361449
-2.56175e-05
-0.000349305
-7.32488e-05
-0.000326089
-0.000123058
-0.000290974
-0.00017369
-0.000243575
-0.000222949
-0.000184411
-0.000267344
-0.000115965
-0.000299826
-4.60256e-05
-0.000299739
-0.000192916
-3.22539e-05
0.000170704
-8.39552e-05
0.000275278
-0.000137801
0.000287388
-0.000189456
0.00027537
-0.00023756
0.000255132
-0.000281262
0.000229392
-0.000319824
0.000198692
-0.000352532
0.000163247
-0.000378649
0.000123165
-0.000397358
7.84835e-05
-0.000407706
2.92439e-05
-0.000408575
-2.47486e-05
-0.000398483
-8.33409e-05
-0.000375902
-0.000145639
-0.000339268
-0.000210324
-0.000287362
-0.000274856
-0.000220038
-0.000334667
-0.000139749
-0.000380115
-5.60278e-05
-0.000383461
-0.000248944
-3.56928e-05
0.000206397
-9.3012e-05
0.000332597
-0.000152631
0.000347007
-0.000209803
0.000332542
-0.000263129
0.000308458
-0.000311801
0.000278063
-0.000355147
0.000242038
-0.000392535
0.000200635
-0.000423291
0.000153921
-0.000446614
0.000101806
-0.000461481
4.41112e-05
-0.000466623
-1.96065e-05
-0.000460061
-8.99027e-05
-0.000439563
-0.000166138
-0.000402488
-0.000247399
-0.000346232
-0.000331112
-0.000269273
-0.000411626
-0.000173513
-0.000475875
-7.07637e-05
-0.00048621
-0.000319708
-3.98529e-05
0.00024625
-0.000103915
0.000396659
-0.000170365
0.000413458
-0.000233966
0.000396143
-0.000293298
0.000367789
-0.000347633
0.000332399
-0.000396432
0.000290837
-0.000439211
0.000243414
-0.000475444
0.000190155
-0.000504444
0.000130806
-0.000525206
6.48735e-05
-0.000536403
-8.40963e-06
-0.000535572
-9.07336e-05
-0.000519636
-0.000182074
-0.000484482
-0.000282553
-0.000425319
-0.000390276
-0.000337971
-0.000498974
-0.000222509
-0.000591337
-9.34438e-05
-0.000615275
-0.000413151
-4.48779e-05
0.000291128
-0.000116974
0.000468756
-0.000191395
0.000487879
-0.000262334
0.000467082
-0.000328385
0.00043384
-0.000388966
0.000392981
-0.000443746
0.000345616
-0.000492492
0.00029216
-0.00053495
0.000232613
-0.000570691
0.000166546
-0.000598891
9.3074e-05
-0.000618377
1.10766e-05
-0.000626361
-8.27498e-05
-0.000618926
-0.000189509
-0.000590128
-0.000311351
-0.000531952
-0.000448452
-0.000435518
-0.000595408
-0.000296207
-0.000730648
-0.000130765
-0.000780717
-0.000543917
-5.10165e-05
0.000342144
-0.000132685
0.000550424
-0.000216318
0.000571511
-0.000295475
0.000546239
-0.000368835
0.0005072
-0.000436052
0.000460198
-0.000497107
0.000406671
-0.000552144
0.000347197
-0.000601339
0.000281808
-0.00064474
0.000209947
-0.000682039
0.000130373
-0.000712103
4.11409e-05
-0.00073304
-6.18128e-05
-0.000739974
-0.000182575
-0.000725173
-0.000326152
-0.000676376
-0.000497249
-0.000577052
-0.000694732
-0.00041266
-0.00089504
-0.0001978
-0.000995578
-0.000741716
-5.87122e-05
0.000400856
-0.000151857
0.000643569
-0.000246052
0.000665706
-0.000334227
0.000634414
-0.000415283
0.000588255
-0.000489234
0.000534149
-0.0005565
0.000473938
-0.000617737
0.000408434
-0.000673721
0.000337792
-0.000725214
0.000261441
-0.000772759
0.000177917
-0.000816204
8.4586e-05
-0.00085467
-2.33469e-05
-0.000883967
-0.000153277
-0.000895387
-0.000314733
-0.000872198
-0.000520438
-0.000786935
-0.000779994
-0.000607362
-0.00107461
-0.000331966
-0.00127097
-0.00107368
-6.88057e-05
0.000469662
-0.000175832
0.000750596
-0.000282001
0.000771875
-0.000379822
0.000732235
-0.000468646
0.000677079
-0.000549015
0.000614518
-0.000621928
0.00054685
-0.000688679
0.000475185
-0.00075079
0.000399903
-0.000809973
0.000320624
-0.00086805
0.000235995
-0.000926619
0.000143155
-0.000987481
3.75154e-05
-0.00104869
-9.2072e-05
-0.00110402
-0.000259403
-0.00113507
-0.000489381
-0.00110223
-0.000812841
-0.000943603
-0.00123324
-0.000605336
-0.00160924
-0.00167902
-8.29578e-05
0.00055262
-0.00020708
0.000874718
-0.00032639
0.000891185
-0.000434037
0.000839881
-0.000530222
0.000773264
-0.000616151
0.000700448
-0.000693513
0.000624212
-0.000764332
0.000546005
-0.000830956
0.000466527
-0.000896214
0.000385882
-0.000963699
0.000303479
-0.00103788
0.000217331
-0.00112294
0.00012258
-0.00122356
8.54788e-06
-0.00134467
-0.00013829
-0.00147392
-0.000360131
-0.00156561
-0.000721153
-0.00150344
-0.00129541
-0.00111144
-0.00200124
-0.00279046
-0.000101389
0.000654009
-0.000247013
0.00102034
-0.000381612
0.00102578
-0.000499556
0.000957825
-0.000602153
0.000875862
-0.000691891
0.000790186
-0.000771591
0.000703912
-0.000844039
0.000618453
-0.000912217
0.000534704
-0.000979678
0.000453343
-0.00105125
0.000375047
-0.00113411
0.000300198
-0.00123999
0.000228461
-0.00138617
0.000154726
-0.00158986
6.53931e-05
-0.00186161
-8.83722e-05
-0.00216801
-0.000414759
-0.00226404
-0.00119938
-0.00174862
-0.00251665
-0.00453908
-0.000157708
0.000811717
-0.00031868
0.00118131
-0.000457366
0.00116447
-0.000576652
0.00107711
-0.00068157
0.00098078
-0.000773524
0.00088214
-0.000854258
0.000784646
-0.000925993
0.000690188
-0.000992033
0.000600744
-0.0010566
0.000517908
-0.0011263
0.000444754
-0.00121026
0.000384149
-0.00132454
0.000342747
-0.00149492
0.000325102
-0.00175919
0.00032967
-0.00214072
0.000293156
-0.0025994
4.39194e-05
-0.00276729
-0.0010315
-0.00199758
-0.00328636
-0.00653666
-0.000123677
0.000935395
-0.00035486
0.0014125
-0.00053884
0.00134845
-0.000682954
0.00122122
-0.000794049
0.00109188
-0.000879305
0.000967395
-0.000946112
0.000851454
-0.00100039
0.000744466
-0.00104699
0.00064734
-0.00108883
0.000559751
-0.00113125
0.000487179
-0.00118064
0.000433536
-0.00125272
0.000414824
-0.00137336
0.000445745
-0.00159262
0.000548932
-0.00191691
0.000617439
-0.00237018
0.00049719
-0.00246126
-0.000940412
-0.00155035
-0.00419727
-0.00808701
-0.000404297
0.00133969
-0.000551575
0.00155977
-0.000677275
0.00147415
-0.000785941
0.00132989
-0.000849702
0.00115564
-0.000880899
0.000998592
-0.000890805
0.000861359
-0.000886301
0.000739962
-0.000874757
0.000635796
-0.000857618
0.000542612
-0.00084246
0.000472022
-0.000826874
0.000417949
-0.000818661
0.000406612
-0.000807819
0.000434903
-0.00080303
0.000544143
-0.000780426
0.000594835
-0.000701731
0.000418495
-0.000703048
-0.000939095
-0.000278589
-0.00462173
-0.0083656
-0.00128156
0.00262125
-0.0012034
0.00148161
-0.000960714
0.00123147
-0.000629472
0.000998648
-0.00028835
0.000814513
3.73444e-05
0.000672898
0.000334529
0.000564175
0.000601633
0.000472857
0.000836802
0.000400627
0.00104407
0.000335347
0.00123087
0.000285213
0.00139874
0.000250082
0.00158629
0.00021906
0.00179356
0.000227641
0.00213281
0.000204886
0.0025541
0.000173546
0.00304144
-6.88438e-05
0.0031209
-0.00101856
0.00201691
-0.00351773
-0.00634869
0.00262125
0.00410287
0.00533433
0.00633298
0.00714749
0.00782039
0.00838457
0.00885742
0.00925805
0.0095934
0.00987861
0.0101287
0.0103478
0.0105754
0.0107803
0.0109538
0.010885
0.00986643
0.00634869
)
;

boundaryField
{
    movingWall
    {
        type            calculated;
        value           uniform 0;
    }
    fixedWalls
    {
        type            calculated;
        value           uniform 0;
    }
    frontAndBack
    {
        type            empty;
        value           nonuniform List<scalar> 0();
    }
}


// ************************************************************************* //
