/*--------------------------------*- C++ -*----------------------------------*\
  =========                 |
  \\      /  F ield         | OpenFOAM: The Open Source CFD Toolbox
   \\    /   O peration     | Website:  https://openfoam.org
    \\  /    A nd           | Version:  10
     \\/     M anipulation  |
\*---------------------------------------------------------------------------*/
FoamFile
{
    format      ascii;
    class       volScalarField;
    location    "7.2";
    object      p;
}
// * * * * * * * * * * * * * * * * * * * * * * * * * * * * * * * * * * * * * //

dimensions      [0 2 -2 0 0 0 0];

internalField   nonuniform List<scalar> 
475
(
-0.0585678
-0.0839688
-0.113355
-0.13701
-0.159801
-0.0843228
-0.0976471
-0.113902
-0.132943
-0.149839
-0.0824315
-0.0917793
-0.106751
-0.124185
-0.140524
-0.0817101
-0.0925514
-0.107424
-0.122792
-0.13631
-0.0518936
-0.0788239
-0.10241
-0.120042
-0.132746
-0.178068
-0.18843
-0.192122
-0.194314
-0.197608
-0.202435
-0.207965
-0.212074
-0.213038
-0.209901
-0.20244
-0.190958
-0.176575
-0.160929
-0.145427
-0.130633
-0.117031
-0.106934
-0.102277
-0.102365
-0.104456
-0.106108
-0.105369
-0.101474
-0.0953315
-0.0876924
-0.0785951
-0.0688263
-0.0591421
-0.0499704
-0.0415431
-0.0337725
-0.0264958
-0.0198579
-0.0142967
-0.0101761
-0.00742698
-0.00550412
-0.0039002
-0.00230654
-0.000828472
0.000365642
0.0010367
0.00108801
0.000562989
-0.166402
-0.17788
-0.183685
-0.185685
-0.186443
-0.187027
-0.187368
-0.18675
-0.184458
-0.180206
-0.174046
-0.1663
-0.157641
-0.148858
-0.140322
-0.131366
-0.122933
-0.117348
-0.116193
-0.118759
-0.122386
-0.124575
-0.123434
-0.118168
-0.109823
-0.0996221
-0.0883588
-0.0765966
-0.0649119
-0.0538077
-0.043463
-0.0339663
-0.0253726
-0.0178812
-0.0118907
-0.0076523
-0.00494242
-0.00312207
-0.00163361
-0.000167083
0.00114663
0.00208297
0.00242423
0.00200508
0.00101665
-0.153845
-0.163309
-0.168836
-0.171009
-0.170866
-0.169222
-0.166481
-0.162825
-0.158396
-0.15348
-0.149164
-0.146544
-0.145921
-0.144933
-0.139497
-0.130604
-0.126187
-0.126073
-0.126998
-0.128843
-0.131138
-0.131236
-0.127919
-0.121717
-0.112578
-0.101628
-0.0895972
-0.0772325
-0.0651276
-0.0536312
-0.042875
-0.0329437
-0.0240158
-0.0163954
-0.010388
-0.00608259
-0.00319369
-0.00118416
0.000398281
0.0017873
0.00288379
0.00351564
0.00350407
0.00271782
0.00131449
-0.146989
-0.154729
-0.159355
-0.161042
-0.159961
-0.15663
-0.15139
-0.1448
-0.137416
-0.130573
-0.126687
-0.128153
-0.138328
-0.149128
-0.143328
-0.123947
-0.113002
-0.1151
-0.123862
-0.131443
-0.135357
-0.135165
-0.131363
-0.12321
-0.112874
-0.101059
-0.0885198
-0.0758601
-0.0635567
-0.0519289
-0.041137
-0.031315
-0.0226176
-0.0152697
-0.00946585
-0.00518555
-0.00216211
3.59113e-06
0.00165068
0.00295111
0.00384412
0.0042322
0.00395386
0.00297663
0.00135673
-0.142284
-0.149238
-0.153529
-0.154914
-0.153335
-0.149083
-0.142567
-0.134608
-0.125881
-0.11844
-0.113922
-0.11725
-0.130801
-0.144977
-0.146494
-0.138585
-0.129623
-0.125253
-0.12557
-0.128452
-0.130264
-0.129474
-0.125396
-0.118349
-0.108939
-0.0979008
-0.0859862
-0.0738338
-0.0619162
-0.0505422
-0.039948
-0.0303178
-0.0218367
-0.0146983
-0.00902009
-0.00475236
-0.00165899
0.000578139
0.00223749
0.00345341
0.00420743
0.00441435
0.00397374
0.00290439
0.00123093
-0.203588
-0.204283
-0.205416
-0.206829
-0.209588
-0.214916
-0.222051
-0.228925
-0.23297
-0.231664
-0.223647
-0.208499
-0.186704
-0.159539
-0.129289
-0.0987221
-0.0705522
-0.0465997
-0.0279376
-0.0151851
-0.00800973
-0.00546592
-0.00628832
-0.00918183
-0.0130161
-0.0168918
-0.0202214
-0.022819
-0.024837
-0.026418
-0.0275351
-0.0281048
-0.0278905
-0.0268199
-0.0249642
-0.0224218
-0.0194384
-0.0164342
-0.0136418
-0.0111663
-0.00888347
-0.00662755
-0.00441956
-0.00234555
-0.000511463
-0.197559
-0.199689
-0.201426
-0.204565
-0.2096
-0.216961
-0.225614
-0.233555
-0.238426
-0.237988
-0.230909
-0.216565
-0.194966
-0.167579
-0.136702
-0.105209
-0.0764037
-0.0519197
-0.0328411
-0.0195838
-0.0119405
-0.00896287
-0.00935331
-0.0118329
-0.015317
-0.0188749
-0.0218188
-0.0239302
-0.0254613
-0.0266864
-0.0277444
-0.0283833
-0.0283778
-0.0272855
-0.0249739
-0.0217135
-0.0182254
-0.0150629
-0.0126536
-0.0107339
-0.00893257
-0.00693545
-0.00475238
-0.00262324
-0.00066258
-0.206508
-0.204938
-0.204793
-0.206422
-0.211547
-0.219954
-0.2296
-0.238212
-0.243865
-0.243552
-0.236379
-0.221948
-0.200582
-0.173775
-0.143695
-0.113278
-0.0854406
-0.06191
-0.0436089
-0.0310439
-0.0238628
-0.0210206
-0.0211711
-0.0230002
-0.0254439
-0.0277078
-0.029344
-0.0302374
-0.0304354
-0.0302611
-0.0298268
-0.028904
-0.0273084
-0.0251269
-0.0225426
-0.0196863
-0.0167092
-0.0139754
-0.0116172
-0.00962993
-0.00786908
-0.00606649
-0.00417994
-0.00234259
-0.000707414
-0.193745
-0.195959
-0.197379
-0.200707
-0.206762
-0.215517
-0.225198
-0.233835
-0.239409
-0.239777
-0.233554
-0.220223
-0.200263
-0.175682
-0.148621
-0.121534
-0.0970079
-0.0766333
-0.0612411
-0.0512321
-0.0459029
-0.0438512
-0.0436527
-0.044168
-0.0445474
-0.0442569
-0.0431505
-0.0413044
-0.0387445
-0.035747
-0.0326108
-0.0295156
-0.0264822
-0.0235689
-0.0205587
-0.017316
-0.0140796
-0.0111588
-0.00886185
-0.00709733
-0.00564046
-0.00421277
-0.00283116
-0.00151947
-0.000535513
-0.229774
-0.208372
-0.204765
-0.203563
-0.206616
-0.213815
-0.222262
-0.229073
-0.232683
-0.231405
-0.224493
-0.21162
-0.193587
-0.172365
-0.149997
-0.128184
-0.10879
-0.093606
-0.0835971
-0.0783539
-0.0763589
-0.0757895
-0.0751951
-0.0737575
-0.0709975
-0.0668422
-0.0618562
-0.0559801
-0.0496337
-0.0432349
-0.0371748
-0.031597
-0.0264066
-0.0215159
-0.0171598
-0.0135276
-0.0106412
-0.00835444
-0.00648276
-0.00479327
-0.00325708
-0.00188441
-0.000860306
-0.000188169
-3.5724e-05
)
;

boundaryField
{
    inlet
    {
        type            zeroGradient;
    }
    outlet
    {
        type            fixedValue;
        value           uniform 0;
    }
    upperWall
    {
        type            zeroGradient;
    }
    lowerWall
    {
        type            zeroGradient;
    }
    frontAndBack
    {
        type            empty;
    }
}


// ************************************************************************* //
