/*--------------------------------*- C++ -*----------------------------------*\
  =========                 |
  \\      /  F ield         | OpenFOAM: The Open Source CFD Toolbox
   \\    /   O peration     | Website:  https://openfoam.org
    \\  /    A nd           | Version:  10
     \\/     M anipulation  |
\*---------------------------------------------------------------------------*/
FoamFile
{
    format      ascii;
    class       surfaceScalarField;
    location    "7.2";
    object      phi;
}
// * * * * * * * * * * * * * * * * * * * * * * * * * * * * * * * * * * * * * //

dimensions      [0 3 -1 0 0 0 0];

internalField   nonuniform List<scalar> 
890
(
0.00984637
0.000153634
0.00971751
0.000128853
0.00946951
0.000248006
0.0094205
4.90074e-05
0.000145534
0.00927497
0.0101194
3.42189e-05
0.0102014
4.69145e-05
0.0104073
4.20508e-05
0.0104654
-9.05613e-06
-7.04316e-05
0.0106813
0.0100715
-3.72408e-05
0.0102157
-9.73086e-05
0.0103779
-0.000120142
0.0105212
-0.00015238
-0.000191054
0.0106418
0.0100908
-0.000128013
0.0102137
-0.000220208
0.0103305
-0.000237003
0.0104177
-0.000239541
-0.000251169
0.0104778
0.00987199
0.00965178
0.00941478
0.00917524
0.00892407
0.00926568
-0.000106879
0.000116167
0.00929136
-0.000269807
0.000244129
0.00936952
-0.000384848
0.000306689
0.0094899
-0.000484858
0.000364469
0.00964405
-0.000593237
0.000439088
0.00982975
-0.000743231
0.000557532
0.0100273
-0.000926824
0.000729237
0.0102315
-0.0011482
0.000944009
0.0104274
-0.0014032
0.0012073
0.010597
-0.00167563
0.00150606
0.0107288
-0.00194703
0.00181521
0.0108084
-0.00219751
0.00211794
0.0108291
-0.00239438
0.00237371
0.0107794
-0.00251001
0.0025597
0.0106325
-0.00251165
0.00265852
0.0104013
-0.0024278
0.00265899
0.0101444
-0.00232555
0.00258244
0.00987237
-0.00216351
0.00243555
0.00958069
-0.00192311
0.00221479
0.00928293
-0.00163163
0.00192939
0.00899347
-0.00131002
0.00159948
0.00871426
-0.000963209
0.00124242
0.00846227
-0.000627345
0.000879331
0.00825199
-0.000325254
0.000535534
0.00808366
-5.84736e-05
0.000226807
0.00794577
0.000179018
-4.1129e-05
0.00784475
0.000373351
-0.000272338
0.00777173
0.000520582
-0.000447558
0.00772603
0.000623842
-0.000578137
0.00770061
0.000692486
-0.000667066
0.00767914
0.000737413
-0.000715948
0.00764762
0.000763354
-0.000731835
0.0075998
0.000770816
-0.000722996
0.00753671
0.000750024
-0.000686933
0.00746146
0.000696346
-0.000621093
0.00737394
0.00062188
-0.000534359
0.00727607
0.000554248
-0.000456377
0.00717341
0.000514869
-0.00041221
0.0070745
0.000499074
-0.000400163
0.0069816
0.000499819
-0.000406922
0.00689741
0.000475942
-0.000391753
0.00681555
0.000454761
-0.000372904
0.00674564
0.000371762
-0.000301848
0.00667748
0.000338185
-0.000270022
0.000217349
-0.000172375
0.0107428
-0.000168369
0.0107669
-0.00029388
0.0107937
-0.000411658
0.010834
-0.000525136
0.0108788
-0.000638038
0.0109089
-0.000773387
0.0109164
-0.000934268
0.0109004
-0.00113218
0.0108497
-0.00135256
0.0107609
-0.00158681
0.0106187
-0.00180485
0.0104216
-0.00200042
0.0101712
-0.00214395
0.00984505
-0.00218384
0.00941402
-0.00208061
0.00893728
-0.00195106
0.00843871
-0.00182698
0.00793782
-0.00166262
0.00744917
-0.00143446
0.00699102
-0.00117349
0.0065738
-0.000892791
0.00620312
-0.000592528
0.00589158
-0.000315813
0.00564148
-7.51531e-05
0.00545948
0.000123526
0.00534704
0.000291457
0.00529467
0.000425724
0.00529046
0.00052479
0.00531765
0.000596658
0.00535972
0.000650413
0.00540612
0.000691012
0.00545389
0.000715583
0.00550694
0.000717764
0.00556656
0.000690408
0.00562579
0.000637112
0.00567566
0.000572011
0.00571383
0.00051608
0.00574885
0.000479854
0.00578828
0.000459642
0.00584256
0.000445541
0.00590505
0.000413444
0.00598172
0.000378099
0.00605287
0.000300608
0.00613078
0.000260269
0.000155411
0.0107272
-0.000253775
0.0107696
-0.000336274
0.0107859
-0.000427909
0.0107819
-0.000521168
0.0107591
-0.000615283
0.0107079
-0.000722108
0.0106229
-0.000849315
0.0104965
-0.00100577
0.0103224
-0.00117847
0.0101124
-0.00137684
0.00986486
-0.00155727
0.00958005
-0.00171562
0.00917142
-0.00173531
0.00859346
-0.00160588
0.00795398
-0.00144114
0.00731571
-0.00131278
0.00657409
-0.00108536
0.00578689
-0.000875421
0.00506128
-0.000708857
0.00441842
-0.000530619
0.00386549
-0.000339863
0.00343003
-0.000157073
0.00310913
5.09248e-06
0.00288168
0.0001523
0.00273809
0.000267117
0.00267866
0.000350886
0.0026922
0.000412177
0.002763
0.000453991
0.00287814
0.000481521
0.00302874
0.000499816
0.00320895
0.000510803
0.00341269
0.000511839
0.00363113
0.000499321
0.00385163
0.000469912
0.00406076
0.000427985
0.00425048
0.000382284
0.00442299
0.000343568
0.00458851
0.000314334
0.0047554
0.000292754
0.00493119
0.000269753
0.0051058
0.000238836
0.0052826
0.000201302
0.00543234
0.000150867
0.0055765
0.000116104
5.89705e-05
0.0105077
-0.000283707
0.0104915
-0.000320025
0.0104325
-0.000368917
0.0103219
-0.000410602
0.010172
-0.000465381
0.00996382
-0.000513895
0.00970221
-0.000587706
0.00935828
-0.000661848
0.00894374
-0.000763925
0.00843984
-0.000872944
0.007865
-0.000982427
0.00728315
-0.00113376
0.00656206
-0.00101422
0.00559545
-0.000639273
0.00443317
-0.000278857
0.00316711
-4.67275e-05
0.0020389
4.2851e-05
0.00118814
-2.46582e-05
0.000617251
-0.000137972
0.000292145
-0.000205513
0.000127066
-0.000174785
6.492e-05
-9.49264e-05
7.14933e-05
-1.48086e-06
0.000155431
6.83618e-05
0.000296758
0.00012579
0.000481721
0.000165923
0.000702511
0.000191387
0.000950149
0.000206353
0.0012169
0.000214768
0.0014981
0.000218615
0.00178904
0.00021987
0.00208449
0.000216382
0.00237683
0.000206983
0.00265569
0.000191052
0.0029131
0.000170577
0.00314671
0.000148679
0.00336109
0.000129188
0.00356261
0.000112807
0.00375618
9.91837e-05
0.00394083
8.51087e-05
0.00410957
7.00971e-05
0.00425766
5.32057e-05
0.00437168
3.68517e-05
0.00446424
2.35454e-05
8.84721e-06
0.00864036
0.00832033
0.00795142
0.00754082
0.00707544
0.00656154
0.00597383
0.00531199
0.00454806
0.00367512
0.00269269
0.00155893
0.000544706
-9.45675e-05
-0.000373424
-0.000420152
-0.000377301
-0.000401959
-0.000539931
-0.000745444
-0.000920229
-0.00101516
-0.00101664
-0.000948274
-0.000822484
-0.000656561
-0.000465174
-0.000258822
-4.40541e-05
0.000174561
0.00039443
0.000610812
0.000817795
0.00100885
0.00117942
0.0013281
0.00145729
0.0015701
0.00166928
0.00175439
0.00182449
0.00187769
0.00191454
0.00193809
5.24009e-05
-5.24009e-05
1.3579e-05
3.88219e-05
-0.000181851
0.00019543
-0.000592718
0.000410867
-0.00114567
0.000552956
-0.00172704
0.00058137
-0.00225359
0.000526548
-0.00268855
0.000434955
-0.00300589
0.000317341
-0.00318694
0.000181055
-0.00321575
2.88079e-05
-0.00309991
-0.000115838
-0.00284375
-0.00025616
-0.00245829
-0.000385465
-0.00196752
-0.000490767
-0.00140294
-0.000564577
-0.000799511
-0.00060343
-0.000183393
-0.000616119
0.000419682
-0.000603075
0.000978206
-0.000558524
0.00146767
-0.000489459
0.00187001
-0.000402348
0.00217527
-0.000305255
0.00238211
-0.000206845
0.00249645
-0.000114334
0.00253187
-3.54223e-05
0.00250597
2.58999e-05
0.00242813
7.78425e-05
0.00230319
0.000124943
0.00214382
0.000159366
0.0019697
0.00017412
0.00180109
0.000168607
0.00165827
0.000142821
0.00155012
0.000108153
0.00147831
7.18113e-05
0.00144149
3.68125e-05
0.00143079
1.07083e-05
0.00143845
-7.66039e-06
0.00145809
-1.96391e-05
0.00148678
-2.86972e-05
0.00152297
-3.61856e-05
0.00156867
-4.56992e-05
0.00161519
-4.65197e-05
0.00166606
-5.08706e-05
-3.80333e-05
-0.000147277
9.48766e-05
-0.000529319
0.000420864
-0.000972242
0.000638352
-0.0013732
0.00081183
-0.00169825
0.000878004
-0.00194796
0.000831077
-0.0021191
0.000697685
-0.00220164
0.000517493
-0.00218472
0.000300428
-0.00205442
5.0755e-05
-0.00182302
-0.000202598
-0.00147064
-0.00046821
-0.00100359
-0.000723219
-0.000437329
-0.000951722
0.000204786
-0.00113288
0.000890724
-0.00125052
0.00159643
-0.00130914
0.00229825
-0.00131794
0.00296551
-0.00127034
0.00357764
-0.00117065
0.00411504
-0.00102685
0.00456375
-0.00085106
0.00491619
-0.000657694
0.00517138
-0.000462034
0.00533471
-0.000277668
0.00541681
-0.000117523
0.00542617
1.6544e-05
0.00537382
0.000130188
0.00528424
0.000214522
0.0051812
0.000262406
0.0050779
0.000277419
0.00497539
0.000271117
0.00486652
0.000251695
0.00475629
0.000218381
0.00465114
0.000176962
0.00454769
0.000140262
0.00444258
0.000115823
0.00433636
9.85555e-05
0.00423525
8.14692e-05
0.00415908
4.7472e-05
0.00411431
8.58272e-06
0.00411015
-4.15341e-05
0.00412989
-6.62572e-05
0.00417392
-9.49049e-05
-8.15744e-05
-0.000505602
0.000600478
-0.000678619
0.000593881
-0.000701516
0.000661249
-0.000627025
0.000737339
-0.000490913
0.000741892
-0.000316607
0.00065677
-0.000109452
0.00049053
0.000138808
0.000269233
0.000437186
2.04962e-06
0.000809737
-0.000321795
0.00125948
-0.000652342
0.00177691
-0.00098564
0.00234804
-0.00129434
0.0029616
-0.00156529
0.00360128
-0.00177256
0.00424774
-0.00189698
0.0048786
-0.00194
0.00547308
-0.00191242
0.00601775
-0.001815
0.00649782
-0.00165072
0.00690161
-0.00143064
0.00722041
-0.00116986
0.00745447
-0.000891756
0.00760845
-0.000616013
0.00768801
-0.000357224
0.00770232
-0.000131839
0.00766171
5.71598e-05
0.0075778
0.000214095
0.00746384
0.000328484
0.00733149
0.000394758
0.00718763
0.000421278
0.00703342
0.000425318
0.0068745
0.000410619
0.0067246
0.000368286
0.00659917
0.00030239
0.00650858
0.000230854
0.00643641
0.000187989
0.00635817
0.000176796
0.00625516
0.000184476
0.00612965
0.000172989
0.00599715
0.000141082
0.00587883
7.67796e-05
0.00579071
2.18679e-05
0.00572904
-3.32418e-05
-5.51434e-05
-0.000224763
0.000825241
-0.000103827
0.000472945
0.000165846
0.000391576
0.000564708
0.000338476
0.00104378
0.00026282
0.00156224
0.000138313
0.00210028
-4.75106e-05
0.00264346
-0.000273947
0.0032094
-0.00056389
0.00378247
-0.000894868
0.00436965
-0.00123952
0.00497113
-0.00158712
0.00557764
-0.00190085
0.00616868
-0.00215633
0.0067336
-0.00233747
0.00725842
-0.0024218
0.00773007
-0.00241165
0.00814374
-0.00232609
0.00849359
-0.00216486
0.00877578
-0.00193291
0.00899014
-0.001645
0.00913722
-0.00131695
0.00922022
-0.000974752
0.00924694
-0.000642732
0.00922901
-0.000339293
0.00917403
-7.68601e-05
0.00907885
0.000152338
0.0089611
0.000331848
0.00882687
0.000462714
0.00867452
0.000547106
0.00850823
0.000587566
0.00834047
0.000593081
0.00817571
0.000575378
0.00800851
0.000535482
0.00784184
0.000469063
0.00768664
0.00038606
0.00755558
0.000319043
0.00744711
0.000285271
0.00734782
0.000283767
0.0072351
0.000285705
0.00710758
0.000268601
0.00695664
0.00022772
0.0068151
0.000163409
0.00666681
0.000115046
5.21543e-05
0.000941408
0.00165848
0.00235675
0.00305969
0.0037616
0.00445745
0.00513917
0.00580924
0.00645265
0.00706384
0.00763953
0.00817035
0.00864321
0.00904658
0.00936763
0.00960482
0.0097756
0.00988507
0.00993499
0.00993148
0.00988596
0.00981143
0.00971601
0.00960881
0.00949633
0.00937834
0.00925834
0.00914263
0.00902721
0.00890725
0.00877887
0.00864011
0.00849249
0.00834104
0.00818901
0.00804071
0.00790338
0.00777644
0.00766004
0.00753883
0.00741567
0.00727049
0.00713205
0.00697707
)
;

boundaryField
{
    inlet
    {
        type            calculated;
        value           nonuniform List<scalar> 5(-0.01 -0.01 -0.01 -0.01 -0.01);
    }
    outlet
    {
        type            calculated;
        value           nonuniform List<scalar> 10(0.0066325 0.00619272 0.00567294 0.00451436 0.00194694 0.00170409 0.00421746 0.00570261 0.00655951 0.00685685);
    }
    upperWall
    {
        type            calculated;
        value           uniform 0;
    }
    lowerWall
    {
        type            calculated;
        value           uniform 0;
    }
    frontAndBack
    {
        type            empty;
        value           nonuniform List<scalar> 0();
    }
}


// ************************************************************************* //
