/*--------------------------------*- C++ -*----------------------------------*\
  =========                 |
  \\      /  F ield         | OpenFOAM: The Open Source CFD Toolbox
   \\    /   O peration     | Website:  https://openfoam.org
    \\  /    A nd           | Version:  10
     \\/     M anipulation  |
\*---------------------------------------------------------------------------*/
FoamFile
{
    format      ascii;
    class       volScalarField;
    location    "2.825";
    object      p;
}
// * * * * * * * * * * * * * * * * * * * * * * * * * * * * * * * * * * * * * //

dimensions      [0 2 -2 0 0 0 0];

internalField   nonuniform List<scalar> 
400
(
2.39222e-09
-2.87898e-05
-1.1214e-07
5.85022e-05
0.000151521
0.000278797
0.000439216
0.000631078
0.000851693
0.00109714
0.00136203
0.00163941
0.00192063
0.00219552
0.00245263
0.00267979
0.00286465
0.00299607
0.00307291
0.00305493
2.80822e-05
-2.13292e-06
2.63648e-05
8.22989e-05
0.000171273
0.00029364
0.000448621
0.00063484
0.000849916
0.00109021
0.00135059
0.00162421
0.0019028
0.00217617
0.00243277
0.00266026
0.00284597
0.00297864
0.00305797
0.00303867
-3.57714e-06
-3.77894e-05
-1.0477e-05
4.39048e-05
0.000131567
0.000253106
0.000408066
0.000595439
0.000813209
0.00105806
0.00132516
0.00160815
0.00189818
0.0021848
0.00245583
0.00269788
0.00289685
0.00303979
0.00312589
0.0031037
-6.96504e-05
-0.00010776
-8.18755e-05
-2.91791e-05
5.73241e-05
0.000178659
0.00033488
0.000525548
0.000749222
0.00100311
0.00128277
0.00158201
0.00189224
0.00220229
0.00249874
0.00276646
0.002989
0.00315051
0.00324898
0.00322544
-0.000175451
-0.000218185
-0.000194034
-0.000143157
-5.75672e-05
6.43437e-05
0.000223327
0.000419718
0.00065287
0.000920745
0.00121953
0.00154331
0.0018836
0.00222865
0.00256358
0.00287065
0.00312982
0.00332061
0.00343882
0.00341496
-0.000322395
-0.000370989
-0.000349125
-0.000300649
-0.000216305
-9.3726e-05
6.87591e-05
0.000272511
0.000517952
0.000804093
0.00112805
0.00148459
0.00186557
0.0022587
0.00264741
0.00301068
0.00332332
0.00355791
0.00370623
0.00368361
-0.000512044
-0.000568053
-0.000549405
-0.000504548
-0.000422609
-0.000300257
-0.000134633
7.69519e-05
0.000336335
0.000643977
0.000998382
0.00139545
0.00182806
0.00228371
0.00274431
0.00318499
0.00357361
0.00387252
0.00406627
0.00404829
-0.000746528
-0.000811877
-0.000797856
-0.00075863
-0.000681286
-0.000561293
-0.000394297
-0.000175932
9.74598e-05
0.00042828
0.000817022
0.00126144
0.00175643
0.00229021
0.00284389
0.0033888
0.00388415
0.00427744
0.00454011
0.00453464
-0.00102833
-0.00110538
-0.00109796
-0.00106735
-0.00099805
-0.000884074
-0.00071923
-0.000497094
-0.000211762
0.000141659
0.000566384
0.00106297
0.00162976
0.00225745
0.00292823
0.00361078
0.00425497
0.0047878
0.00515656
0.005182
-0.0013602
-0.0014518
-0.00145362
-0.00143572
-0.00137943
-0.00127695
-0.00111989
-0.000899413
-0.000606956
-0.000234623
0.00022436
0.000774545
0.00141885
0.00215415
0.00296717
0.00382732
0.00467664
0.00541815
0.00595324
0.00605331
-0.0017452
-0.00185476
-0.00186906
-0.00186926
-0.00183268
-0.00174927
-0.00160804
-0.00139742
-0.00110598
-0.000722544
-0.000236127
0.000364316
0.00108389
0.00193435
0.00291144
0.00399291
0.00511947
0.00617431
0.00697597
0.00725464
-0.00218694
-0.00231834
-0.00234886
-0.00237392
-0.00236565
-0.00231117
-0.00219638
-0.00200674
-0.00172803
-0.00134616
-0.000846313
-0.000212452
0.000573444
0.00153318
0.00268318
0.00402383
0.00551169
0.00702927
0.00827204
0.00896915
-0.00269056
-0.00284726
-0.00289779
-0.00295593
-0.00298671
-0.00297343
-0.00289821
-0.00274332
-0.00249221
-0.00212896
-0.00163654
-0.000994475
-0.000176021
0.000864598
0.00216637
0.00377468
0.00569876
0.00787105
0.00982824
0.0115266
-0.00326555
-0.00344891
-0.00352081
-0.00362168
-0.00370471
-0.00374751
-0.00372718
-0.00362251
-0.00341544
-0.00309042
-0.00263113
-0.00201412
-0.0012024
-0.000152053
0.00120554
0.00300479
0.00535761
0.00836323
0.0114608
0.015451
-0.00391375
-0.00413514
-0.00422806
-0.0043842
-0.00453356
-0.00464749
-0.00469742
-0.00465819
-0.00451082
-0.00424307
-0.00384694
-0.00331283
-0.00261965
-0.00171877
-0.000504442
0.00124212
0.00374235
0.00770021
0.0123129
0.0204404
-0.00475843
-0.00482403
-0.00492693
-0.00513357
-0.00539319
-0.00563349
-0.00580113
-0.00585716
-0.00578395
-0.00558063
-0.00525841
-0.00482894
-0.0042999
-0.00364442
-0.00272801
-0.00124795
0.000259476
0.00398484
0.0084623
0.0227067
-0.00541197
-0.00606371
-0.00610707
-0.00650266
-0.00682091
-0.00709305
-0.00727848
-0.00735109
-0.00730161
-0.00713519
-0.00688574
-0.00660095
-0.00636653
-0.00629112
-0.00654042
-0.00746078
-0.00874915
-0.0067021
-0.00378036
0.0203392
-0.0084116
-0.00616795
-0.00625457
-0.00649097
-0.0070864
-0.00769317
-0.00820338
-0.00852831
-0.00864914
-0.00857123
-0.00837819
-0.00814161
-0.00806755
-0.0083611
-0.00956597
-0.0117629
-0.0174109
-0.0182292
-0.0153634
0.0236398
-0.00575462
-0.00904276
-0.00889952
-0.00996235
-0.010502
-0.0109362
-0.0111816
-0.0112064
-0.01105
-0.0107066
-0.0103034
-0.00994934
-0.00986529
-0.0104942
-0.0126598
-0.0160406
-0.0254448
-0.0254601
-0.0130057
0.0541493
-0.0290166
-0.00517688
-0.00526218
-0.00596873
-0.00699164
-0.00809943
-0.0090731
-0.00970431
-0.0100581
-0.0100038
-0.00993688
-0.0096331
-0.00984972
-0.0101613
-0.0115826
-0.0121329
-0.0107291
0.00667539
0.0586978
0.178355
)
;

boundaryField
{
    movingWall
    {
        type            zeroGradient;
    }
    fixedWalls
    {
        type            zeroGradient;
    }
    frontAndBack
    {
        type            empty;
    }
}


// ************************************************************************* //
