/*--------------------------------*- C++ -*----------------------------------*\
  =========                 |
  \\      /  F ield         | OpenFOAM: The Open Source CFD Toolbox
   \\    /   O peration     | Website:  https://openfoam.org
    \\  /    A nd           | Version:  10
     \\/     M anipulation  |
\*---------------------------------------------------------------------------*/
FoamFile
{
    format      ascii;
    class       volScalarField;
    location    "4.075";
    object      p;
}
// * * * * * * * * * * * * * * * * * * * * * * * * * * * * * * * * * * * * * //

dimensions      [0 2 -2 0 0 0 0];

internalField   nonuniform List<scalar> 
8000
(
1.15558e-07
-1.32224e-05
1.44496e-05
6.79324e-05
0.000152928
0.00027006
0.00041963
0.000601426
0.000814292
0.00105584
0.00132209
0.00160703
0.00190232
0.00219701
0.00247816
0.00273122
0.002941
0.00309336
0.00318591
0.00318663
1.34245e-05
-1.31281e-06
2.67391e-05
7.86341e-05
0.000160996
0.00027473
0.000420394
0.000598057
0.000806876
0.00104477
0.00130802
0.00159068
0.00188462
0.00217954
0.0024622
0.00271777
0.00293057
0.00308601
0.00318238
0.00318239
-2.21996e-05
-4.02407e-05
-1.35997e-05
3.6195e-05
0.000116362
0.000227965
0.000371907
0.000548705
0.000758036
0.000998349
0.00126643
0.00155715
0.00186266
0.00217193
0.00247129
0.00274471
0.00297455
0.00314364
0.00324943
0.00324783
-9.17974e-05
-0.000112592
-8.77795e-05
-4.07562e-05
3.64767e-05
0.000145315
0.000287215
0.000463403
0.000674376
0.000919484
0.0011964
0.0015006
0.00182488
0.00215853
0.00248671
0.00279116
0.00305093
0.00324446
0.00336735
0.00336658
-0.000201256
-0.000225159
-0.000202736
-0.000159171
-8.55382e-05
1.99973e-05
0.000159627
0.000335523
0.000549312
0.000801623
0.00109148
0.00141554
0.00176744
0.00213668
0.00250737
0.00285859
0.00316471
0.00339697
0.00354731
0.00354975
-0.000351916
-0.0003796
-0.000360267
-0.000321172
-0.000252322
-0.000151364
-1.52131e-05
0.000159493
0.000375849
0.000636212
0.000941504
0.00129024
0.00167766
0.00209426
0.00252323
0.00294045
0.00331401
0.00360465
0.00379729
0.00380699
-0.000545266
-0.000577589
-0.000562239
-0.000529059
-0.000466855
-0.000372725
-0.000242571
-7.16225e-05
0.000145046
0.000412062
0.000733036
0.00110945
0.00153862
0.00201336
0.00251766
0.00302413
0.00349301
0.00387032
0.00412772
0.00415301
-0.000783215
-0.00082118
-0.000810893
-0.000785514
-0.00073255
-0.000648604
-0.000528519
-0.000365965
-0.000153899
0.000115095
0.000448108
0.000850687
0.00132531
0.00186671
0.002464
0.00308716
0.00368796
0.00419343
0.00455077
0.00461002
-0.00106812
-0.0011128
-0.00110872
-0.00109336
-0.0010529
-0.000983625
-0.000879387
-0.000732281
-0.000532985
-0.000270909
6.52985e-05
0.000486657
0.00100168
0.00161479
0.00232018
0.00308991
0.00386923
0.00456344
0.00507753
0.0052122
-0.00140303
-0.00145547
-0.00145854
-0.00145545
-0.00143118
-0.00138202
-0.00130107
-0.00117904
-0.00100442
-0.000763337
-0.000439666
-1.57203e-05
0.000525587
0.00120066
0.00202136
0.00296405
0.00397667
0.00494614
0.00570916
0.00601112
-0.00179231
-0.00185322
-0.00186363
-0.00187458
-0.0018701
-0.001847
-0.00179807
-0.00171309
-0.00157888
-0.00137873
-0.00109172
-0.00069207
-0.000149081
0.000567686
0.00147178
0.00259349
0.00389254
0.00525377
0.00641512
0.00708037
-0.00224277
-0.002312
-0.00232824
-0.00235351
-0.0023714
-0.00237991
-0.00237217
-0.00233776
-0.00226289
-0.0021295
-0.00191386
-0.00158462
-0.00110095
-0.00041266
0.000539383
0.00179919
0.00340161
0.00528179
0.00705514
0.00854614
-0.0027661
-0.00284111
-0.00285828
-0.00289504
-0.00293539
-0.00297937
-0.00302101
-0.00305053
-0.00305507
-0.00301779
-0.00291601
-0.00271813
-0.00237901
-0.00183434
-0.000991863
0.000273584
0.00207727
0.004556
0.00724259
0.0103644
-0.00338428
-0.0034552
-0.00346083
-0.0035006
-0.00355995
-0.00364062
-0.00373715
-0.00384117
-0.00394268
-0.00402914
-0.00408406
-0.00408398
-0.00399287
-0.00374863
-0.00324632
-0.00230428
-0.000604854
0.0022645
0.00599225
0.0120592
-0.00413626
-0.00419518
-0.00417427
-0.00420595
-0.00426867
-0.0043717
-0.00451475
-0.00469305
-0.00490064
-0.00513197
-0.00538298
-0.00565005
-0.00592851
-0.00619686
-0.00640192
-0.00634963
-0.00565166
-0.00286104
0.00175288
0.0124772
-0.00516815
-0.00500609
-0.00488433
-0.00484179
-0.00489773
-0.00504226
-0.00525939
-0.00553513
-0.00586315
-0.00624477
-0.00669605
-0.00724508
-0.0079407
-0.00883101
-0.0100097
-0.0112147
-0.0124197
-0.0101939
-0.00548754
0.01138
-0.00617084
-0.0063086
-0.00607102
-0.00603546
-0.00602004
-0.0060972
-0.00627059
-0.00654147
-0.00690933
-0.00738134
-0.00798791
-0.00878227
-0.00988648
-0.0114107
-0.0137403
-0.0162832
-0.0205333
-0.0200269
-0.0156815
0.00982758
-0.00995333
-0.00716438
-0.00665709
-0.0061398
-0.00606315
-0.00621106
-0.00652809
-0.00695335
-0.00747586
-0.00809149
-0.00885514
-0.00980708
-0.0111939
-0.0128927
-0.0163944
-0.0190868
-0.0265292
-0.0270987
-0.0224341
0.0169992
-0.00981794
-0.0106643
-0.00938515
-0.00908382
-0.00857253
-0.00830717
-0.00825112
-0.00838689
-0.00870202
-0.00917287
-0.00983138
-0.0107201
-0.0121008
-0.0139664
-0.0175865
-0.0215456
-0.0292998
-0.0276293
-0.0160323
0.0516994
-0.0339662
-0.00864894
-0.00731051
-0.00612456
-0.00563668
-0.00577569
-0.00624832
-0.00681719
-0.00750775
-0.00824189
-0.00919376
-0.0102225
-0.0118126
-0.0134595
-0.0160908
-0.0169477
-0.0164294
0.00154002
0.0430273
0.15341
4.2849e-06
-1.92526e-05
6.981e-06
5.97218e-05
0.000145044
0.000263033
0.000413886
0.000597271
0.000812147
0.00105615
0.00132519
0.00161315
0.00191174
0.00221002
0.00249479
0.00275117
0.0029633
0.00311585
0.00320676
0.0031947
2.69808e-05
2.75926e-06
3.02298e-05
8.1245e-05
0.000163241
0.000276791
0.000422378
0.000600094
0.000809149
0.0010475
0.00131147
0.00159501
0.00189052
0.00218712
0.00247161
0.00272896
0.0029429
0.00309786
0.00319309
0.00317946
-5.753e-06
-3.44909e-05
-8.38017e-06
4.04125e-05
0.000120072
0.000231334
0.000375019
0.000551696
0.000761102
0.00100174
0.00127043
0.00156219
0.00186905
0.00218011
0.00248154
0.00275705
0.0029883
0.00315695
0.00326152
0.00324386
-7.26505e-05
-0.000104975
-8.06381e-05
-3.46914e-05
4.19416e-05
0.000150314
0.000291812
0.000467721
0.000678618
0.00092393
0.00120139
0.0015065
0.00183253
0.00216825
0.00249885
0.0028058
0.00306735
0.00326051
0.00338203
0.00336284
-0.000179928
-0.000216203
-0.000194197
-0.00015172
-7.86833e-05
2.63907e-05
0.000165626
0.000341267
0.000555031
0.000807648
0.00109822
0.00142343
0.00177757
0.00214949
0.00252339
0.002878
0.00318664
0.00341875
0.00356746
0.00354854
-0.000328312
-0.000369356
-0.000350349
-0.000312311
-0.000243999
-0.000143429
-7.5793e-06
0.000166998
0.000383503
0.00064442
0.000950752
0.00130074
0.00169162
0.00211193
0.00254542
0.00296758
0.00334509
0.00363617
0.00382691
0.00381134
-0.000518929
-0.000565806
-0.000550655
-0.000518483
-0.000456736
-0.000362897
-0.000232913
-6.19102e-05
0.000155168
0.000423132
0.000745855
0.00112553
0.00155779
0.00203796
0.00254903
0.00306313
0.00353869
0.00391794
0.00417338
0.0041685
-0.000753499
-0.00080747
-0.000797219
-0.000772795
-0.00072021
-0.00063646
-0.000516404
-0.000353585
-0.000140789
0.00012963
0.00046508
0.000871423
0.00135044
0.00190089
0.00250865
0.00314418
0.0037569
0.0042681
0.00462408
0.00464828
-0.00103418
-0.00109664
-0.0010924
-0.00107796
-0.00103783
-0.00096869
-0.000864368
-0.000716795
-0.000516437
-0.000252414
8.70076e-05
0.000513125
0.0010347
0.00166173
0.00238358
0.00317393
0.00397511
0.00468428
0.00519961
0.00529898
-0.00136377
-0.00143614
-0.00143882
-0.00143668
-0.00141277
-0.00136377
-0.00128271
-0.00116007
-0.00098409
-0.000740492
-0.000412574
1.74607e-05
0.000561943
0.00126563
0.00211034
0.0030874
0.00414046
0.00514543
0.00592039
0.00620996
-0.00174618
-0.00182971
-0.00183949
-0.00185151
-0.00184758
-0.00182483
-0.00177593
-0.00169038
-0.00155465
-0.00135147
-0.00105886
-0.000648657
-8.19067e-05
0.000643988
0.00159203
0.00277155
0.00414402
0.00558288
0.00679187
0.00754429
-0.00218742
-0.00228274
-0.00229809
-0.00232482
-0.00234373
-0.00235312
-0.00234586
-0.00231123
-0.00223502
-0.00209845
-0.00187653
-0.00153559
-0.00103113
-0.000311759
0.000688119
0.00203859
0.00376748
0.00580366
0.00772166
0.00965434
-0.00269748
-0.00280371
-0.0028199
-0.002859
-0.00290128
-0.00294709
-0.00299017
-0.00302041
-0.00302444
-0.00298455
-0.00287656
-0.00266617
-0.00230391
-0.00172032
-0.000830216
0.000543647
0.00254588
0.00528943
0.00828864
0.0125826
-0.0032938
-0.00340207
-0.00340577
-0.00344979
-0.00351418
-0.00360005
-0.00370095
-0.00380795
-0.0039107
-0.00399591
-0.0040455
-0.00403344
-0.00391871
-0.00363
-0.00304549
-0.00204476
-0.00027578
0.00280485
0.00658939
0.0147627
-0.0040107
-0.00413133
-0.00410996
-0.0041518
-0.00422135
-0.00433051
-0.00447887
-0.00466149
-0.00487214
-0.00510448
-0.00535312
-0.00561358
-0.0058799
-0.00613753
-0.00636983
-0.00652153
-0.00625162
-0.00404946
-0.00114375
0.0123048
-0.00496072
-0.00486053
-0.00474927
-0.00472378
-0.0048029
-0.00496901
-0.00520516
-0.00549655
-0.00583635
-0.00622658
-0.00668066
-0.0072262
-0.00792089
-0.00884936
-0.0102103
-0.0121202
-0.0148526
-0.0146066
-0.0138671
0.00538066
-0.00575988
-0.0061254
-0.00589866
-0.00593091
-0.00595194
-0.00606222
-0.00626219
-0.00655212
-0.00693328
-0.00741353
-0.00802088
-0.00880913
-0.00991699
-0.0115127
-0.0141693
-0.0177835
-0.0247326
-0.0277716
-0.0282752
-0.000155809
-0.00933602
-0.00671293
-0.00625131
-0.00581533
-0.00585449
-0.00610111
-0.00649445
-0.00697119
-0.00752948
-0.00816094
-0.00892363
-0.00984553
-0.0111989
-0.0129811
-0.0166007
-0.0205415
-0.0302167
-0.034682
-0.0349736
0.012158
-0.00698043
-0.00951282
-0.0086698
-0.00879576
-0.00853531
-0.00844213
-0.00847519
-0.00866669
-0.00900806
-0.00947871
-0.0101054
-0.0108961
-0.0122145
-0.0139027
-0.0177882
-0.0224454
-0.0313345
-0.0322406
-0.0187945
0.0589011
-0.0315164
-0.00665728
-0.00568072
-0.00507948
-0.00498417
-0.00534237
-0.00598869
-0.00666363
-0.00745912
-0.00821212
-0.00921664
-0.0101705
-0.0117857
-0.0134531
-0.0161133
-0.017385
-0.0159804
0.00389762
0.0567668
0.184339
1.05953e-05
-1.67447e-05
8.63991e-06
6.08347e-05
0.000146077
0.000264374
0.000415706
0.000599959
0.000816021
0.00106154
0.00133251
0.00162287
0.00192417
0.00222539
0.00251311
0.00277212
0.00298607
0.00313897
0.00322907
0.00321131
3.78448e-05
9.40269e-06
3.62909e-05
8.65143e-05
0.000168096
0.000281467
0.000427066
0.000605035
0.000814614
0.00105381
0.00131898
0.00160415
0.00190162
0.00220045
0.00248726
0.00274674
0.00296216
0.00311737
0.00321204
0.00319297
7.30125e-06
-2.61951e-05
-6.43524e-07
4.72623e-05
0.000126405
0.00023736
0.000380931
0.000557733
0.00076756
0.00100899
0.0012789
0.00157236
0.00188135
0.0021949
0.00249903
0.0027771
0.00301024
0.00317936
0.00328343
0.00325952
-5.71672e-05
-9.46621e-05
-7.08725e-05
-2.5892e-05
5.01356e-05
0.000158099
0.000299383
0.000475336
0.000686608
0.000932715
0.00121148
0.00151852
0.00184703
0.00218577
0.00251971
0.00282995
0.00309409
0.00328816
0.00340938
0.00338307
-0.000162078
-0.000203934
-0.000182457
-0.000140994
-6.86e-05
3.60335e-05
0.000175044
0.000350757
0.000564988
0.000818583
0.00111077
0.00143841
0.00179567
0.00217152
0.00254994
0.00290918
0.00322168
0.00345557
0.0036044
0.00357722
-0.00030781
-0.00035489
-0.000336379
-0.00029939
-0.000231734
-0.000131607
4.05079e-06
0.000178789
0.000395935
0.000658131
0.000966571
0.00131996
0.00171477
0.00214047
0.00258035
0.00300934
0.00339295
0.00368746
0.00387921
0.00385401
-0.000495219
-0.000548657
-0.000533954
-0.000502874
-0.000441813
-0.00034843
-0.000218611
-4.73459e-05
0.000170588
0.000440199
0.00076544
0.00114756
0.00158717
0.00207515
0.00259553
0.00312005
0.00360556
0.00399139
0.0042497
0.00423397
-0.000725785
-0.000786933
-0.000777081
-0.000753828
-0.00070201
-0.000618788
-0.000498924
-0.000335779
-0.000121909
0.00015066
0.000489816
0.000902624
0.00138837
0.00194926
0.0025705
0.00322204
0.00385123
0.00437507
0.00473776
0.00475133
-0.00100138
-0.00107173
-0.00106786
-0.00105474
-0.00101557
-0.000947149
-0.000843171
-0.000695328
-0.000493783
-0.000227228
0.000116691
0.000550172
0.00108312
0.00172367
0.00246472
0.0032796
0.00410809
0.00484136
0.00537107
0.00546591
-0.00132436
-0.00140547
-0.00140853
-0.00140801
-0.00138543
-0.00133756
-0.00125723
-0.00113461
-0.000957567
-0.000711269
-0.000378137
6.15781e-05
0.000627537
0.00134268
0.00221371
0.0032278
0.00432551
0.00537525
0.00618073
0.00648758
-0.00169793
-0.00179126
-0.00180152
-0.00181572
-0.00181379
-0.00179295
-0.00174554
-0.00166071
-0.00152446
-0.00131891
-0.00102124
-0.000602785
-2.89384e-05
0.000728696
0.00171686
0.00295092
0.00439405
0.0059132
0.00718902
0.00801628
-0.00212697
-0.00223347
-0.00224957
-0.00227944
-0.00230155
-0.00231419
-0.00230981
-0.00227722
-0.00220168
-0.0020637
-0.00183728
-0.00148722
-0.000966997
-0.000219379
0.000827733
0.00224856
0.00407946
0.00624994
0.00831185
0.0104471
-0.00261964
-0.00273903
-0.00275663
-0.00280052
-0.00284794
-0.00289918
-0.00294743
-0.00298201
-0.00298893
-0.00294975
-0.00283937
-0.00262185
-0.00224491
-0.00163376
-0.000694473
0.000747135
0.0028645
0.00580106
0.00905215
0.0136801
-0.00318956
-0.0033128
-0.00331882
-0.00337041
-0.00344369
-0.00353918
-0.00364949
-0.00376489
-0.00387425
-0.0039638
-0.00401511
-0.00400117
-0.0038792
-0.00357572
-0.00297485
-0.00193059
-0.000160117
0.00303978
0.00705324
0.0155928
-0.00386791
-0.00401119
-0.00399408
-0.00404941
-0.00413264
-0.00425623
-0.00441885
-0.00461504
-0.00483769
-0.00507995
-0.00533716
-0.00560533
-0.00588143
-0.00616018
-0.00645793
-0.00679656
-0.00675829
-0.00486077
-0.00182867
0.0116103
-0.00475376
-0.00467851
-0.0045757
-0.00456825
-0.00467039
-0.00486145
-0.00512332
-0.00543902
-0.00580147
-0.00621094
-0.0066818
-0.00724343
-0.00796206
-0.00894629
-0.0104778
-0.0128438
-0.0164764
-0.017134
-0.016178
0.0026741
-0.00541794
-0.00583846
-0.00563186
-0.00571046
-0.00577112
-0.00592291
-0.00616568
-0.00649618
-0.00691487
-0.007425
-0.00805526
-0.00886319
-0.010001
-0.011673
-0.0145802
-0.0187875
-0.0268892
-0.0313968
-0.0309211
-0.00259277
-0.00893535
-0.00634406
-0.00587232
-0.00547234
-0.00557095
-0.00588524
-0.00634907
-0.00689353
-0.00750991
-0.00818441
-0.00897606
-0.00991035
-0.0112759
-0.0131244
-0.0168984
-0.0216461
-0.0311526
-0.0362945
-0.0329289
0.0132103
-0.005893
-0.00866689
-0.00794812
-0.00820517
-0.0080506
-0.00805507
-0.00823374
-0.00855101
-0.00899368
-0.00953982
-0.010212
-0.0110053
-0.0123264
-0.0140066
-0.0180027
-0.0230509
-0.0312565
-0.0305254
-0.0121298
0.0653313
-0.0307589
-0.00583019
-0.00486099
-0.00438456
-0.00443521
-0.00491633
-0.00568327
-0.00645777
-0.00735098
-0.00816401
-0.00922064
-0.0102067
-0.0118082
-0.0136016
-0.0161518
-0.0174745
-0.0148756
0.0078757
0.0666118
0.196863
1.73812e-05
-1.21127e-05
1.25908e-05
6.41829e-05
0.000149298
0.000267783
0.000419651
0.000604719
0.000821927
0.00106895
0.00134179
0.00163436
0.00193817
0.00224207
0.00253248
0.00279389
0.00300959
0.00316313
0.00325304
0.00323248
4.70913e-05
1.65329e-05
4.28886e-05
9.2481e-05
0.000173758
0.00028707
0.000432852
0.000611268
0.000821602
0.0010619
0.00132855
0.00161559
0.00191529
0.00221658
0.00250591
0.00276771
0.00298484
0.0031407
0.0032353
0.00321326
1.82231e-05
-1.75911e-05
7.42596e-06
5.46426e-05
0.00013341
0.000244222
0.000387888
0.000565065
0.0007756
0.00101813
0.00128957
0.00158505
0.00189649
0.00221284
0.00251993
0.00280082
0.00303614
0.00320622
0.0033104
0.00328308
-4.41913e-05
-8.41653e-05
-6.09138e-05
-1.66805e-05
5.89054e-05
0.000166653
0.000307963
0.000484245
0.000696224
0.000943498
0.00122397
0.00153334
0.00186477
0.00220695
0.00254465
0.00285859
0.00312577
0.00332146
0.00344318
0.00341312
-0.000146928
-0.000191439
-0.000170507
-0.000129838
-5.79213e-05
4.64675e-05
0.0001855
0.000361581
0.000576629
0.000831611
0.00112588
0.00145641
0.00181739
0.00219775
0.00258128
0.00294577
0.00326287
0.00349959
0.00364972
0.00361847
-0.000290146
-0.000340088
-0.00032213
-0.000285978
-0.000218828
-0.000118957
1.67463e-05
0.000191938
0.000410087
0.000674
0.000985065
0.00134222
0.0017419
0.00217373
0.00262082
0.00305756
0.00344838
0.00374792
0.00394247
0.00391308
-0.000474478
-0.000531031
-0.000516896
-0.000486717
-0.000426211
-0.000333117
-0.000203243
-3.14388e-05
0.000187708
0.00045944
0.000788005
0.00117517
0.00162109
0.00211752
0.00264824
0.00318439
0.00368147
0.0040763
0.00434029
0.00432089
-0.000701174
-0.000765751
-0.000756502
-0.000734262
-0.000683106
-0.000600272
-0.000480412
-0.000316702
-0.000101447
0.00017366
0.000516891
0.000935529
0.00143027
0.00200275
0.00263874
0.00330783
0.00395569
0.0044957
0.00486955
0.00488207
-0.000971802
-0.00104598
-0.00104278
-0.00103088
-0.000992584
-0.000924783
-0.000821011
-0.000672724
-0.00046976
-0.000200366
0.000148413
0.000589514
0.00113388
0.00178966
0.00255133
0.00339238
0.0042508
0.0050131
0.00556459
0.0056667
-0.0012883
-0.00137373
-0.00137762
-0.00137866
-0.00135735
-0.00131055
-0.00123087
-0.00110821
-0.000930008
-0.000680901
-0.00034249
0.000106228
0.000686951
0.00142066
0.0023195
0.0033715
0.00451619
0.00561702
0.00646578
0.00680236
-0.00165325
-0.00175152
-0.00176289
-0.00177921
-0.00177924
-0.00176025
-0.00171433
-0.00163029
-0.00149367
-0.00128597
-0.000983506
-0.000556519
3.07611e-05
0.000812796
0.00183741
0.00312353
0.00463719
0.00624328
0.00760637
0.00851632
-0.00207055
-0.00218278
-0.00220047
-0.00223338
-0.00225858
-0.00227438
-0.0022729
-0.00224259
-0.00216821
-0.00202959
-0.00179979
-0.0014422
-0.000908224
-0.000135986
0.000950571
0.00243388
0.00436076
0.00666975
0.00890392
0.0112339
-0.00254685
-0.00267306
-0.00269304
-0.00274147
-0.00279375
-0.0028502
-0.00290361
-0.00294289
-0.00295357
-0.00291659
-0.00280603
-0.00258479
-0.00219872
-0.00157017
-0.000601631
0.000893017
0.00311054
0.00623458
0.00980044
0.0147859
-0.00309291
-0.00322424
-0.00323374
-0.00329216
-0.00337328
-0.00347748
-0.00359668
-0.0037206
-0.00383773
-0.00393386
-0.00399016
-0.00397959
-0.00385907
-0.00355512
-0.00295245
-0.00189676
-0.000146588
0.00317411
0.00760078
0.0166217
-0.00373758
-0.00389321
-0.00388195
-0.00394885
-0.00404405
-0.00418049
-0.0043563
-0.00456562
-0.00480122
-0.00505607
-0.00532594
-0.00560896
-0.00590693
-0.00622552
-0.00661083
-0.00715238
-0.00745791
-0.00580233
-0.00238137
0.0114846
-0.00457063
-0.00450881
-0.00441469
-0.00442222
-0.00454284
-0.00475495
-0.00503899
-0.00537704
-0.00576128
-0.00619202
-0.0066846
-0.00727232
-0.00803242
-0.00909622
-0.0108147
-0.0135997
-0.0180411
-0.019699
-0.018477
0.000904184
-0.00514681
-0.00560347
-0.00540802
-0.00551951
-0.00561
-0.00579409
-0.00606879
-0.00643107
-0.00687948
-0.0074186
-0.00807752
-0.00891864
-0.0101108
-0.0118838
-0.0150587
-0.0197888
-0.0290655
-0.0348378
-0.0342378
-0.00421782
-0.00857902
-0.00601857
-0.00555369
-0.00518404
-0.00532229
-0.00568495
-0.00619954
-0.00679243
-0.00745518
-0.00817095
-0.00899905
-0.00996521
-0.0113809
-0.0133129
-0.0172944
-0.0225508
-0.0327736
-0.0384371
-0.0347133
0.0143286
-0.00527143
-0.00819439
-0.00748603
-0.00781801
-0.00772881
-0.0078107
-0.00804784
-0.00842661
-0.0089301
-0.00953059
-0.0102444
-0.0110637
-0.012423
-0.0141335
-0.0182768
-0.0235585
-0.031934
-0.0307636
-0.0108825
0.0703315
-0.0301116
-0.00517358
-0.00422338
-0.00381648
-0.00396028
-0.00453301
-0.00539083
-0.00624758
-0.00721908
-0.00809586
-0.00920596
-0.0102351
-0.0118704
-0.013738
-0.0163241
-0.0176896
-0.0148665
0.00928537
0.0704988
0.20508
2.42995e-05
-5.93997e-06
1.84436e-05
6.97007e-05
0.000154715
0.000273323
0.000425561
0.000611261
0.000829396
0.00107767
0.00135212
0.00164664
0.00195269
0.00225901
0.00255185
0.00281551
0.00303295
0.00318748
0.00327776
0.00325623
5.50721e-05
2.36919e-05
4.97452e-05
9.89783e-05
0.000180102
0.000293459
0.000439508
0.000618448
0.000829602
0.00107105
0.00133922
0.00162815
0.00193004
0.00223376
0.00252559
0.00278972
0.00300872
0.00316569
0.00326079
0.00323786
2.73567e-05
-9.35561e-06
1.53481e-05
6.21709e-05
0.000140749
0.000251569
0.000395471
0.000573158
0.000784531
0.00102827
0.00130136
0.00159892
0.00191285
0.00223201
0.00254207
0.00282582
0.00306352
0.00323513
0.00334009
0.00331182
-3.34643e-05
-7.44064e-05
-5.14815e-05
-7.68197e-06
6.76752e-05
0.000175392
0.000316915
0.000493713
0.000706585
0.000955204
0.00123754
0.00154937
0.00188381
0.00222949
0.002571
0.00288874
0.00315925
0.00335723
0.00348029
0.00344928
-0.000134332
-0.000179892
-0.000159304
-0.000119108
-4.74514e-05
5.68868e-05
0.000196136
0.000372786
0.000588854
0.000845418
0.00114194
0.00147551
0.00184031
0.00222527
0.00261397
0.00298383
0.00330586
0.00354626
0.00369869
0.00366662
-0.000275296
-0.00032638
-0.000308789
-0.000273158
-0.000206306
-0.000106508
2.94233e-05
0.000205255
0.000424594
0.000690407
0.00100426
0.00136527
0.00176991
0.00220791
0.00266222
0.00310676
0.00350513
0.00381068
0.00400927
0.00397946
-0.000456843
-0.000514647
-0.000500917
-0.000471333
-0.000411192
-0.000318227
-0.000188146
-1.56523e-05
0.000204851
0.000478838
0.000810833
0.00120295
0.00165525
0.00215999
0.00270084
0.00324847
0.00375727
0.00416209
0.0044332
0.00441449
-0.000680033
-0.000745991
-0.000737216
-0.000715696
-0.000665036
-0.000582464
-0.0004625
-0.000298134
-8.14302e-05
0.000196228
0.000543471
0.000967939
0.00147115
0.00205475
0.00270485
0.00339075
0.00405684
0.00461362
0.00500013
0.00501616
-0.00094618
-0.0010219
-0.0010193
-0.00100832
-0.000970761
-0.000903486
-0.000799864
-0.000651123
-0.000446793
-0.000174716
0.000178595
0.000626715
0.00118143
0.00185151
0.00263233
0.00349758
0.00438404
0.00517456
0.00574877
0.00586123
-0.00125686
-0.00134403
-0.00134871
-0.00135101
-0.00133085
-0.00128505
-0.00120602
-0.0010834
-0.000904249
-0.000652712
-0.000309707
0.000146709
0.000739476
0.00149055
0.00241424
0.00349994
0.00468684
0.00583457
0.00672508
0.00708765
-0.00161416
-0.0017144
-0.00172687
-0.00174498
-0.00174682
-0.00172961
-0.00168521
-0.00160213
-0.00146551
-0.00125628
-0.000950008
-0.000515892
8.33131e-05
0.000884924
0.00193958
0.00326974
0.00484448
0.00652689
0.00796793
0.00893737
-0.00202119
-0.00213571
-0.00215496
-0.00219047
-0.00221848
-0.00223727
-0.00223871
-0.00221089
-0.00213816
-0.00199984
-0.0017682
-0.00140552
-0.000861363
-7.12599e-05
0.00104549
0.00257854
0.00458661
0.00701421
0.00939319
0.0118448
-0.00248354
-0.00261244
-0.00263468
-0.0026869
-0.00274346
-0.00280469
-0.00286308
-0.0029072
-0.0029222
-0.00288864
-0.00278005
-0.00255859
-0.00216884
-0.00153132
-0.000548239
0.00097837
0.00328684
0.0065704
0.010404
0.0155917
-0.00301023
-0.00314473
-0.00315735
-0.0032212
-0.00330877
-0.00342042
-0.00354769
-0.00367989
-0.0038052
-0.0039093
-0.00397344
-0.00397053
-0.00385792
-0.00356323
-0.00297573
-0.00197259
-0.000165723
0.00327758
0.0081121
0.0173894
-0.00362918
-0.00378966
-0.00378298
-0.0038582
-0.00396267
-0.00410968
-0.00429703
-0.00451868
-0.00476735
-0.00503605
-0.00532134
-0.00562342
-0.00594767
-0.00630605
-0.00675549
-0.00737771
-0.00795354
-0.00643041
-0.00245046
0.0116543
-0.00442472
-0.0043679
-0.00427977
-0.00429751
-0.00443086
-0.00465838
-0.00495982
-0.00531672
-0.00572104
-0.00617315
-0.00668962
-0.00730743
-0.00811232
-0.00925049
-0.0111192
-0.0142022
-0.0192726
-0.0214651
-0.0195504
0.000208591
-0.00495346
-0.00542228
-0.00523059
-0.00535966
-0.00546788
-0.00567298
-0.00597061
-0.0063576
-0.00683321
-0.00740061
-0.00809033
-0.00896955
-0.0102208
-0.01209
-0.0154899
-0.020605
-0.0307077
-0.0374088
-0.0358782
-0.00502269
-0.00832305
-0.00577632
-0.00531817
-0.00496392
-0.00512164
-0.00551117
-0.00605787
-0.00668539
-0.0073847
-0.00813734
-0.00900291
-0.0100098
-0.0114879
-0.0135069
-0.0177145
-0.0233171
-0.0341839
-0.0403729
-0.0353052
0.0148996
-0.00498381
-0.00792842
-0.00719567
-0.00754473
-0.00747495
-0.00758751
-0.00786226
-0.00828537
-0.00883332
-0.00948015
-0.0102353
-0.0110932
-0.0125065
-0.0142702
-0.0185665
-0.0240338
-0.032616
-0.0312985
-0.00952284
0.073113
-0.0297693
-0.00481151
-0.00385351
-0.0034585
-0.00363444
-0.004251
-0.00516086
-0.00607166
-0.00709648
-0.00802472
-0.00918092
-0.0102584
-0.0119413
-0.0138872
-0.0165562
-0.0179899
-0.0150393
0.00982043
0.072973
0.208956
3.0783e-05
2.5575e-07
2.44578e-05
7.55376e-05
0.000160527
0.000279283
0.000431875
0.000618165
0.000837156
0.00108659
0.00136249
0.00165877
0.00196683
0.00227534
0.0025704
0.00283612
0.00305527
0.00321094
0.00330183
0.00328004
6.20554e-05
3.03738e-05
5.6255e-05
0.000105306
0.000186389
0.000299868
0.000446237
0.000625733
0.000837715
0.0010803
0.00134993
0.00164065
0.00194461
0.00225061
0.00254479
0.00281114
0.003032
0.00319025
0.00328609
0.00326295
3.5189e-05
-1.84605e-06
2.26796e-05
6.93035e-05
0.000147823
0.00025875
0.000402966
0.00058122
0.000793462
0.00103842
0.00131311
0.00161268
0.00192897
0.00225079
0.00256365
0.00285013
0.0030902
0.0032635
0.00336949
0.00334104
-2.43887e-05
-6.56749e-05
-4.29384e-05
6.38964e-07
7.59161e-05
0.000183723
0.000325558
0.000502953
0.00071677
0.000966753
0.00125093
0.00156512
0.00190244
0.00225145
0.00259656
0.00291793
0.0031917
0.00339215
0.00351678
0.00348572
-0.0001237
-0.000169627
-0.000149245
-0.000109299
-3.77469e-05
6.6668e-05
0.000206242
0.000383543
0.000600682
0.000858834
0.00115757
0.00149404
0.00186247
0.00225176
0.00264533
0.00302026
0.00334705
0.00359122
0.00374619
0.00371433
-0.00026273
-0.000314206
-0.000296847
-0.000261509
-0.000194799
-9.49495e-05
4.13094e-05
0.000217852
0.000438408
0.000706092
0.00102262
0.00138726
0.00179657
0.00224032
0.00270132
0.00315312
0.00355861
0.00387011
0.00407288
0.00404381
-0.000441861
-0.000500087
-0.000486633
-0.000457412
-0.000397484
-0.000304532
-0.000174158
-9.29468e-07
0.000220918
0.000497066
0.000832277
0.00122894
0.00168715
0.00219951
0.00274959
0.00330768
0.00382727
0.00424159
0.00451969
0.00450285
-0.000662003
-0.000728423
-0.000719998
-0.000698958
-0.000648643
-0.000566222
-0.000446085
-0.000281051
-6.29682e-05
0.000217054
0.000567967
0.000997758
0.00150851
0.00210207
0.00276477
0.00346564
0.00414802
0.00472013
0.00511848
0.00513877
-0.000924265
-0.00100049
-0.000998366
-0.000988062
-0.000951078
-0.000884215
-0.000780686
-0.000631512
-0.000425953
-0.000151498
0.000205791
0.000660038
0.00122373
0.00190632
0.00270382
0.00359007
0.00450088
0.00531615
0.00591065
0.00603251
-0.00122994
-0.00131769
-0.00132303
-0.0013263
-0.00130709
-0.00126215
-0.0011837
-0.00106115
-0.000881252
-0.000627714
-0.000280887
0.000181924
0.000784628
0.00155056
0.00249529
0.0036094
0.0048319
0.00601919
0.00694527
0.00732787
-0.00158071
-0.00168162
-0.00169504
-0.00171457
-0.00171792
-0.00170227
-0.00165927
-0.00157716
-0.00144076
-0.00123052
-0.000921369
-0.000481586
0.000127398
0.00094461
0.00202364
0.0033899
0.00501468
0.00675933
0.00826353
0.00927446
-0.00197918
-0.00209446
-0.00211507
-0.00215263
-0.00218299
-0.00220437
-0.00220843
-0.00218302
-0.00211213
-0.00197464
-0.00174219
-0.00137618
-0.000824652
-2.11334e-05
0.00111961
0.00269319
0.00476571
0.00728731
0.00977776
0.0123088
-0.00243023
-0.00256002
-0.00258414
-0.0026393
-0.00269936
-0.00276461
-0.00282736
-0.00287596
-0.00289525
-0.00286544
-0.00275948
-0.00253959
-0.00214867
-0.00150559
-0.000511375
0.00104708
0.00342244
0.00682985
0.0108662
0.0161854
-0.00294191
-0.00307741
-0.00309256
-0.00316045
-0.00325303
-0.00337067
-0.0035047
-0.00364418
-0.00377713
-0.00388911
-0.00396133
-0.00396702
-0.00386363
-0.00357863
-0.00299986
-0.00200686
-0.000175377
0.00337345
0.00852803
0.0179787
-0.00354213
-0.0037042
-0.00370085
-0.00378181
-0.00389309
-0.00404825
-0.00424494
-0.00447705
-0.00473725
-0.00501903
-0.00531942
-0.00564023
-0.00598949
-0.00638355
-0.00688728
-0.00759346
-0.00831966
-0.00683877
-0.00241662
0.0119033
-0.00431138
-0.004256
-0.00417192
-0.00419639
-0.00433848
-0.00457715
-0.00489185
-0.00526386
-0.00568489
-0.00615589
-0.00669466
-0.00734117
-0.00818774
-0.00939097
-0.0113802
-0.0146784
-0.020182
-0.0226689
-0.0202208
-9.91816e-05
-0.00481539
-0.00528785
-0.00509717
-0.00523522
-0.00535379
-0.00557257
-0.00588662
-0.00629259
-0.00678881
-0.0073799
-0.00809775
-0.00901348
-0.0103205
-0.0122757
-0.0158608
-0.0212517
-0.0319465
-0.0392993
-0.0371029
-0.00555743
-0.00813883
-0.00559859
-0.00514663
-0.00480082
-0.00496849
-0.00537358
-0.005941
-0.00659286
-0.00731902
-0.00810119
-0.00900034
-0.0100471
-0.0115886
-0.0136922
-0.0181308
-0.0239308
-0.0353815
-0.0420206
-0.036194
0.0150429
-0.00482347
-0.00776661
-0.00700893
-0.0073609
-0.00729429
-0.00742032
-0.00771588
-0.00816515
-0.0087432
-0.00942358
-0.0102145
-0.0111104
-0.0125812
-0.0144061
-0.0188518
-0.0244663
-0.0333065
-0.0320225
-0.00921001
0.0745695
-0.0295521
-0.00458383
-0.00361636
-0.00322027
-0.0034071
-0.00404447
-0.00498336
-0.00592711
-0.00698939
-0.00795579
-0.00915427
-0.0102743
-0.0120176
-0.0140284
-0.0168054
-0.0183042
-0.0153902
0.00978334
0.0739735
0.211004
3.64641e-05
5.85897e-06
2.99821e-05
8.09954e-05
0.000166016
0.000284933
0.000437851
0.000624661
0.000844399
0.00109483
0.00137199
0.00166979
0.00197959
0.00228999
0.00258697
0.00285451
0.00307521
0.00323201
0.00332358
0.00330182
6.79912e-05
3.62144e-05
6.20159e-05
0.000111
0.000192114
0.000305752
0.000452446
0.000632464
0.000845203
0.00108881
0.00135973
0.00165203
0.00195781
0.00226581
0.00256205
0.00283038
0.00305295
0.00321246
0.00330908
0.00328604
4.17443e-05
4.61231e-06
2.90533e-05
7.56017e-05
0.000154145
0.000265228
0.000409774
0.000588574
0.000801621
0.00104768
0.0013238
0.00162514
0.00194352
0.00226767
0.00258301
0.00287191
0.00311413
0.00328906
0.0033961
0.00336783
-1.6882e-05
-5.82688e-05
-3.56259e-05
7.86169e-06
8.31506e-05
0.000191109
0.000333284
0.000511262
0.000725964
0.000977189
0.00126302
0.00157931
0.00191915
0.00227108
0.00261935
0.00294391
0.00322062
0.00342338
0.00354956
0.00351881
-0.000114943
-0.000160975
-0.000140701
-0.000100867
-2.9321e-05
7.52359e-05
0.000215162
0.000393098
0.00061123
0.000870821
0.00117152
0.00151055
0.00188216
0.00227522
0.002673
0.00305236
0.00338335
0.00363095
0.00378831
0.00375702
-0.000252383
-0.00030397
-0.000286744
-0.000251553
-0.000184883
-8.49167e-05
5.16941e-05
0.000228915
0.000450584
0.000719934
0.00103882
0.00140661
0.00181995
0.00226864
0.00273537
0.00319339
0.00360505
0.00392178
0.00412832
0.00410031
-0.000429513
-0.000487858
-0.000474579
-0.000445563
-0.000385742
-0.000292735