/*--------------------------------*- C++ -*----------------------------------*\
  =========                 |
  \\      /  F ield         | OpenFOAM: The Open Source CFD Toolbox
   \\    /   O peration     | Website:  https://openfoam.org
    \\  /    A nd           | Version:  10
     \\/     M anipulation  |
\*---------------------------------------------------------------------------*/
FoamFile
{
    format      ascii;
    class       volScalarField;
    location    "6.425";
    object      p;
}
// * * * * * * * * * * * * * * * * * * * * * * * * * * * * * * * * * * * * * //

dimensions      [0 2 -2 0 0 0 0];

internalField   nonuniform List<scalar> 
8000
(
5.58378e-06
3.01005e-06
4.9849e-05
0.000134089
0.000261865
0.000434814
0.000654593
0.000922113
0.00123818
0.00160147
0.00200826
0.0024514
0.00291941
0.00339593
0.00385893
0.00428208
0.00463681
0.00489587
0.00505292
0.00506361
9.60264e-06
5.59402e-06
5.3952e-05
0.000137678
0.00026362
0.000433672
0.000649762
0.000913445
0.0012254
0.00158473
0.00198812
0.00242888
0.00289559
0.00337215
0.00383779
0.00426523
0.00462511
0.00488899
0.00505151
0.00505849
-5.04261e-05
-5.81933e-05
-1.16471e-05
6.89986e-05
0.000191191
0.000356985
0.000568746
0.000828703
0.00113834
0.00149775
0.00190475
0.00235382
0.00283514
0.00333272
0.00382421
0.00428069
0.00466882
0.00495457
0.00513108
0.00513149
-0.000162085
-0.000172577
-0.000128695
-5.25796e-05
6.39354e-05
0.000223239
0.000428395
0.000682628
0.00098872
0.00134838
0.00176133
0.00222406
0.00272817
0.00325824
0.00379251
0.00429843
0.00473632
0.00506213
0.00526474
0.00525935
-0.000331284
-0.000344605
-0.000304617
-0.000234753
-0.000126088
2.41961e-05
0.000220018
0.000465858
0.000766212
0.00112503
0.00154472
0.00202478
0.00255976
0.0031369
0.00373155
0.00431021
0.0048236
0.00521263
0.00545787
0.00544605
-0.000558635
-0.00057522
-0.000540464
-0.000478914
-0.000380925
-0.000243242
-6.10391e-05
0.000171556
0.000461045
0.000814145
0.00123689
0.001733
0.00230162
0.00293372
0.00360714
0.00428525
0.00490756
0.00539319
0.00570603
0.0056884
-0.000843837
-0.000864303
-0.000836268
-0.000785539
-0.000701849
-0.000581653
-0.000419335
-0.000207691
6.18698e-05
0.000399163
0.000814613
0.00131783
0.00191475
0.00260306
0.00336473
0.00417102
0.00494375
0.00557487
0.00599553
0.00598009
-0.00118612
-0.00121122
-0.00119147
-0.00115439
-0.0010893
-0.000992713
-0.000858606
-0.000678809
-0.000442958
-0.000138249
0.000250441
0.000739841
0.00134612
0.00207986
0.00293804
0.00387871
0.00484495
0.00569212
0.0062886
0.00630907
-0.00158433
-0.0016148
-0.0016047
-0.00158405
-0.00154213
-0.00147607
-0.00138018
-0.00124615
-0.00106277
-0.000815187
-0.000484401
-4.69511e-05
0.000524285
0.0012564
0.00216676
0.00325003
0.00443799
0.00559354
0.00647762
0.00664133
-0.00203717
-0.0020736
-0.0020738
-0.00207166
-0.00205696
-0.0020283
-0.00198132
-0.00190891
-0.0018008
-0.00164241
-0.00141353
-0.00108683
-0.000626654
1.13073e-05
0.000875766
0.00200147
0.0033887
0.00491581
0.00627308
0.00687227
-0.00254387
-0.00258635
-0.002596
-0.00261273
-0.00262759
-0.0026417
-0.00265339
-0.0026585
-0.00265014
-0.00261763
-0.00254528
-0.00241021
-0.00217831
-0.00179945
-0.00120337
-0.000291028
0.00106334
0.00294947
0.00499498
0.0066327
-0.00310558
-0.00315312
-0.00316856
-0.00320131
-0.0032446
-0.00330343
-0.00338013
-0.00347539
-0.00358872
-0.00371806
-0.00385959
-0.00400702
-0.00414954
-0.00426623
-0.00431151
-0.0041648
-0.00350686
-0.00164502
0.0014406
0.00525555
-0.00372869
-0.00377809
-0.00379104
-0.00383191
-0.0038967
-0.00399609
-0.00413763
-0.00432823
-0.00457658
-0.00489428
-0.00529797
-0.00581254
-0.00647619
-0.0073357
-0.0084238
-0.00957511
-0.0102064
-0.00803182
-0.0026938
0.00348175
-0.00442609
-0.0044653
-0.00445706
-0.00448908
-0.00456182
-0.00469152
-0.00488943
-0.0051693
-0.00554997
-0.00605855
-0.0067379
-0.00765053
-0.00890113
-0.0106081
-0.0128587
-0.0152349
-0.0166084
-0.0132199
-0.00628638
0.00162182
-0.00523485
-0.00525949
-0.00521253
-0.00521768
-0.00527177
-0.00540203
-0.00562692
-0.00596732
-0.0064517
-0.00712003
-0.00804169
-0.00930336
-0.0110753
-0.0134732
-0.0167121
-0.0199936
-0.0228192
-0.0200049
-0.0135973
-0.00161935
-0.00632342
-0.00612165
-0.0059456
-0.00583571
-0.00583764
-0.00596166
-0.0062143
-0.00660815
-0.00717284
-0.00795029
-0.00903281
-0.0105261
-0.0126503
-0.0155239
-0.0194978
-0.0237217
-0.0295918
-0.0289793
-0.0233657
-0.00450763
-0.00725625
-0.00736569
-0.00705158
-0.00691944
-0.00680437
-0.00681171
-0.0069633
-0.00728529
-0.0078157
-0.00858914
-0.0097136
-0.0112707
-0.0135256
-0.0165409
-0.0209602
-0.0256202
-0.0336929
-0.0326575
-0.025896
0.00127823
-0.0111522
-0.00832738
-0.00768433
-0.00698394
-0.00673625
-0.00673663
-0.00694968
-0.00733557
-0.00792595
-0.00873103
-0.00987934
-0.0114079
-0.0135998
-0.0163984
-0.0204401
-0.0242837
-0.0300465
-0.0268267
-0.0171466
0.0230703
-0.0107932
-0.011695
-0.0102261
-0.00972532
-0.00898364
-0.00851109
-0.00828922
-0.00832071
-0.00864844
-0.00924126
-0.0102274
-0.0115832
-0.0136378
-0.0161446
-0.0199143
-0.0227543
-0.0263179
-0.016776
0.00238008
0.0681674
-0.0354219
-0.0100229
-0.00837829
-0.00691055
-0.00614917
-0.00602868
-0.00628342
-0.00669357
-0.00735069
-0.00815451
-0.00938828
-0.0108307
-0.0129769
-0.0150763
-0.0175714
-0.0168662
-0.0121529
0.0133918
0.0614641
0.170041
1.13525e-05
-2.89577e-06
4.15307e-05
0.000124719
0.0002526
0.000426163
0.00064685
0.000916393
0.00123489
0.00160129
0.00201206
0.00246022
0.0029343
0.0034177
0.00388801
0.0043183
0.00467846
0.00493876
0.00509316
0.00508679
2.4838e-05
1.04978e-05
5.84627e-05
0.000141604
0.000267438
0.000437482
0.000653601
0.000917482
0.00122984
0.0015899
0.00199456
0.00243728
0.00290645
0.00338764
0.00385782
0.00428998
0.0046534
0.00491759
0.00507848
0.00506681
-3.14499e-05
-5.14087e-05
-5.03591e-06
7.50377e-05
0.000197072
0.000362748
0.000574381
0.000834304
0.00114411
0.00150407
0.00191223
0.00236331
0.00284807
0.00334987
0.00384672
0.00430903
0.00470168
0.00498807
0.00516267
0.00514
-0.000140114
-0.000163986
-0.000120128
-4.45477e-05
7.1821e-05
0.00023099
0.000435969
0.000690082
0.00099626
0.00135643
0.00177062
0.00223562
0.00274357
0.00327922
0.00382049
0.00433416
0.00477823
0.00510506
0.00530527
0.00527181
-0.000307438
-0.000334998
-0.000294958
-0.000225583
-0.000116989
3.3262e-05
0.000229053
0.000474971
0.000775687
0.00113542
0.00155697
0.0020403
0.00258028
0.00316434
0.00376957
0.00435929
0.00488189
0.0052733
0.00551556
0.00546879
-0.000533345
-0.00056495
-0.00053007
-0.000468942
-0.00037089
-0.000233052
-5.06103e-05
0.000182443
0.000472813
0.000827537
0.00125313
0.001754
0.00232989
0.00297212
0.00366105
0.00435592
0.00499312
0.00548467
0.0057949
0.00573213
-0.000817132
-0.000853522
-0.000825279
-0.000774885
-0.000690968
-0.000570386
-0.000407499
-0.00019492
7.61975e-05
0.000416068
0.000835743
0.00134578
0.00195315
0.00265601
0.00344378
0.00427473
0.00507311
0.00571955
0.00614253
0.00606873
-0.00115789
-0.00120004
-0.00118001
-0.00114319
-0.00107773
-0.000980537
-0.000845524
-0.000664285
-0.000426125
-0.000117721
0.000276894
0.000775812
0.00139714
0.00215402
0.0030388
0.00402919
0.0050448
0.00593169
0.00654807
0.00650193
-0.00155439
-0.00160334
-0.00159293
-0.00157252
-0.00153016
-0.00146336
-0.0013663
-0.00123037
-0.00104395
-0.000791548
-0.000453062
-3.1772e-06
0.00058831
0.00135197
0.00230344
0.00345942
0.00474701
0.00600495
0.0069712
0.00711306
-0.0020052
-0.00206193
-0.00206186
-0.00206007
-0.00204501
-0.00201562
-0.00196736
-0.00189278
-0.00178109
-0.00161697
-0.00137884
-0.00103682
-0.00055083
0.000131015
0.00106848
0.00227647
0.00382746
0.00561797
0.00725501
0.00801697
-0.0025093
-0.00257451
-0.00258401
-0.00260137
-0.00261615
-0.0026298
-0.00264038
-0.00264331
-0.00263118
-0.00259256
-0.0025102
-0.00235832
-0.00209849
-0.00167378
-0.00100493
2.41105e-05
0.00158435
0.00395715
0.00670411
0.00897071
-0.00306721
-0.00314072
-0.00315611
-0.00319
-0.00323383
-0.00329284
-0.00336898
-0.00346249
-0.0035723
-0.00369572
-0.00382767
-0.00395983
-0.00408119
-0.00417788
-0.00422846
-0.0041344
-0.00341025
-0.00108016
0.00288448
0.00794293
-0.00368436
-0.00376528
-0.00377892
-0.00382205
-0.0038882
-0.0039883
-0.00412973
-0.00431926
-0.00456483
-0.00487767
-0.00527448
-0.00578102
-0.00644537
-0.00735828
-0.00865894
-0.0103655
-0.0117048
-0.00976501
-0.00430141
0.00392105
-0.00436785
-0.00444452
-0.00443581
-0.00447117
-0.00454792
-0.00468126
-0.00488166
-0.00516208
-0.00554115
-0.00604609
-0.00672114
-0.00763686
-0.00892264
-0.0107909
-0.0135578
-0.0171485
-0.0207251
-0.0193613
-0.0134727
-0.0025412
-0.00515511
-0.00524021
-0.00519443
-0.00520814
-0.00526714
-0.00540058
-0.00562676
-0.00596665
-0.00644807
-0.0071117
-0.00802648
-0.0092949
-0.0111199
-0.0137745
-0.0177397
-0.0228202
-0.0290173
-0.0292431
-0.0251085
-0.010374
-0.00617438
-0.00604061
-0.00587331
-0.00577633
-0.00579479
-0.00593255
-0.00619464
-0.0065933
-0.00715683
-0.00792994
-0.0089985
-0.0104774
-0.0126402
-0.0157172
-0.0205134
-0.0264517
-0.0358229
-0.0378337
-0.0361048
-0.0145889
-0.00692528
-0.00726078
-0.00695477
-0.00688005
-0.00678498
-0.00680629
-0.00696323
-0.00728433
-0.0078044
-0.00856125
-0.00964736
-0.0111444
-0.013391
-0.0164888
-0.0214941
-0.0273308
-0.0371814
-0.0387721
-0.0370947
-0.00474766
-0.0106372
-0.00798614
-0.00737919
-0.00672432
-0.00656468
-0.00663107
-0.00688782
-0.00729657
-0.00788555
-0.00866035
-0.00975004
-0.0111764
-0.0133005
-0.0161174
-0.020449
-0.0250567
-0.0316757
-0.0310884
-0.0234517
0.0237283
-0.00810125
-0.0107025
-0.00962187
-0.00949163
-0.00893001
-0.00856295
-0.00838779
-0.00842593
-0.00872734
-0.00926499
-0.0101521
-0.011382
-0.0133337
-0.015793
-0.0199068
-0.0235067
-0.0280458
-0.0196015
0.00185787
0.076594
-0.0331686
-0.00814587
-0.00677829
-0.00587209
-0.00546946
-0.00552205
-0.00590133
-0.00637996
-0.00708425
-0.00787189
-0.00907965
-0.0104452
-0.0125416
-0.0147002
-0.0173009
-0.0170266
-0.0120264
0.0152733
0.0753372
0.201197
2.23665e-05
2.91634e-06
4.62275e-05
0.000128775
0.000256943
0.000431473
0.000653797
0.000925404
0.00124692
0.00161745
0.00203361
0.00248853
0.00297079
0.00346352
0.00394373
0.00438325
0.00475031
0.00501315
0.00516606
0.00514873
4.21954e-05
2.21903e-05
6.97732e-05
0.000152385
0.000278216
0.000448631
0.000665544
0.00093076
0.00124519
0.00160829
0.00201713
0.0024654
0.00294181
0.00343096
0.00390999
0.00435072
0.00472073
0.00498757
0.00514778
0.00512558
-1.02636e-05
-3.69049e-05
9.20047e-06
8.86583e-05
0.000210562
0.000376434
0.000588673
0.000849785
0.0011616
0.00152465
0.00193727
0.00239441
0.00288696
0.0033987
0.00390646
0.00437955
0.00478082
0.00507093
0.00524495
0.00520883
-0.000115258
-0.000146485
-0.000102787
-2.78669e-05
8.83068e-05
0.000247588
0.000453112
0.000708435
0.00101677
0.00138041
0.00179976
0.00227197
0.00278931
0.00333788
0.00389361
0.00442212
0.0048784
0.00521088
0.00541083
0.00535991
-0.000279477
-0.000314995
-0.000275025
-0.000206294
-9.78438e-05
5.26102e-05
0.000249116
0.000496551
0.000799951
0.001164
0.00159209
0.00208478
0.0026374
0.00323838
0.00386384
0.00447506
0.00501632
0.00541732
0.00566013
0.00558904
-0.000502393
-0.00054258
-0.000507669
-0.000447114
-0.000349081
-0.000210844
-2.7373e-05
0.0002077
0.000501547
0.000861836
0.00129593
0.00180924
0.00240277
0.00306813
0.00378589
0.00451302
0.00517996
0.00568873
0.0060017
0.00590212
-0.000782929
-0.00082859
-0.000800206
-0.000750309
-0.000666291
-0.00054511
-0.000380852
-0.000165686
0.000109831
0.000456753
0.000887303
0.0014136
0.00204443
0.00278029
0.00360976
0.00449003
0.00533726
0.00601613
0.00644812
0.00631426
-0.00111993
-0.00117215
-0.00115188
-0.00111554
-0.00104994
-0.000952043
-0.000815414
-0.000631111
-0.000387692
-7.07601e-05
0.000337196
0.000856438
0.00150752
0.00230461
0.00325306
0.00431994
0.00541673
0.00636729
0.00701103
0.00686341
-0.00151189
-0.00157186
-0.00156115
-0.00154133
-0.00149896
-0.00143157
-0.0013329
-0.00119372
-0.00100152
-0.000739481
-0.000385524
8.87838e-05
0.000718136
0.00154003
0.0025769
0.00383528
0.00525259
0.00663767
0.00767289
0.00765697
-0.00195705
-0.00202593
-0.00202559
-0.00202468
-0.00200999
-0.00198046
-0.00193103
-0.00185353
-0.00173621
-0.00156224
-0.00130775
-0.000939344
-0.000411181
0.00033463
0.00135877
0.00270897
0.00444278
0.00647503
0.00824792
0.0087912
-0.00245381
-0.00253255
-0.00254193
-0.00256073
-0.00257663
-0.00259103
-0.00260143
-0.00260254
-0.002586
-0.00253897
-0.0024422
-0.00226707
-0.00197063
-0.00149131
-0.000753862
0.00034152
0.00208391
0.0047639
0.00776343
0.00978523
-0.00300161
-0.00309031
-0.00310573
-0.00314196
-0.00318822
-0.00324953
-0.00332722
-0.00342092
-0.00352883
-0.0036473
-0.00377044
-0.0038901
-0.00399798
-0.00409467
-0.00419738
-0.00422449
-0.00367849
-0.00110911
0.00332943
0.00831754
-0.00360443
-0.00370317
-0.00371765
-0.00376466
-0.00383499
-0.00393933
-0.00408452
-0.00427697
-0.00452435
-0.00483786
-0.00523544
-0.00574898
-0.00644286
-0.00745751
-0.0090486
-0.0112785
-0.0131562
-0.0111644
-0.00550183
0.00277333
-0.00426454
-0.00436138
-0.00435383
-0.0043951
-0.00447917
-0.00462033
-0.00482822
-0.00511538
-0.00550061
-0.00601221
-0.00669772
-0.00764096
-0.00900153
-0.0110733
-0.0143292
-0.0187692
-0.0234614
-0.0228044
-0.0172295
-0.00588132
-0.00501858
-0.00513092
-0.005087
-0.00511111
-0.00518097
-0.00532569
-0.00556253
-0.00591237
-0.00640323
-0.00707715
-0.00800551
-0.00930711
-0.0112176
-0.0141056
-0.0186153
-0.0245741
-0.0320234
-0.0332419
-0.0292543
-0.0143408
-0.00597749
-0.00587506
-0.00571262
-0.00562953
-0.00566545
-0.00582161
-0.00610115
-0.00651536
-0.00709184
-0.00787657
-0.00895377
-0.0104496
-0.0126617
-0.0159003
-0.0210839
-0.0274907
-0.0369308
-0.0389482
-0.0362671
-0.0163948
-0.00659832
-0.00699622
-0.00670585
-0.00666791
-0.0066008
-0.00664946
-0.00682992
-0.00717154
-0.00770617
-0.00847217
-0.00955565
-0.0110486
-0.0133047
-0.0164203
-0.0215656
-0.0275075
-0.0359512
-0.0372781
-0.0328723
-0.00437696
-0.0102769
-0.00765896
-0.00701337
-0.00637005
-0.00625127
-0.0063675
-0.00666844
-0.00711366
-0.00772403
-0.00851167
-0.00959545
-0.0109914
-0.0130712
-0.0158829
-0.0201481
-0.0246563
-0.0298517
-0.0281789
-0.017988
0.0256788
-0.00702035
-0.00989154
-0.00893222
-0.00892121
-0.00844441
-0.00815672
-0.00804031
-0.00813176
-0.00846537
-0.00901983
-0.00989784
-0.0111046
-0.0130096
-0.0155236
-0.0196287
-0.0233128
-0.0268981
-0.0173014
0.00664601
0.0806795
-0.0324651
-0.00733638
-0.00595672
-0.00517431
-0.00489043
-0.00502286
-0.00545319
-0.00598294
-0.00670952
-0.00751766
-0.00870303
-0.010067
-0.0121032
-0.0143084
-0.0168129
-0.0164144
-0.0102571
0.0187418
0.0830468
0.21076
3.46711e-05
1.23036e-05
5.4923e-05
0.00013715
0.000265764
0.000441398
0.000665528
0.000939769
0.00126493
0.00164029
0.00206265
0.00252524
0.00301662
0.00351958
0.0040105
0.00446011
0.0048351
0.005102
0.00525539
0.0052318
5.80756e-05
3.50115e-05
8.23153e-05
0.000164677
0.00029082
0.000462043
0.000680346
0.000947687
0.00126518
0.00163249
0.00204691
0.00250226
0.00298739
0.00348649
0.00397618
0.00442715
0.00480536
0.00507659
0.00523782
0.00520937
8.35917e-06
-2.18544e-05
2.40439e-05
0.00010322
0.000225387
0.000392004
0.000605579
0.000868812
0.00118377
0.00155128
0.00196995
0.002435
0.00293748
0.00346106
0.00398178
0.00446765
0.00487949
0.00517544
0.00535094
0.00530653
-9.37199e-05
-0.000128888
-8.53253e-05
-1.06935e-05
0.000105743
0.000265779
0.000472698
0.000730295
0.0010421
0.00141077
0.00183713
0.00231873
0.00284827
0.00341192
0.00398471
0.00453063
0.00500173
0.00534272
0.00554521
0.00548276
-0.000255239
-0.000295017
-0.000255123
-0.000186655
-7.78722e-05
7.34616e-05
0.000271586
0.000521683
0.000829186
0.0011993
0.00163602
0.00214051
0.0027088
0.00332978
0.00397874
0.00461487
0.00517841
0.00559295
0.00584041
0.00575176
-0.000475428
-0.000520188
-0.000485291
-0.000424951
-0.000326476
-0.000187173
-1.76463e-06
0.000236498
0.000535306
0.000903013
0.00134786
0.00187623
0.00248941
0.00318251
0.00393338
0.0046972
0.00539878
0.00593034
0.00625221
0.00612353
-0.000752969
-0.000803551
-0.000775123
-0.000725408
-0.000640859
-0.000518445
-0.000351943
-0.000133051
0.000148325
0.000504143
0.000947862
0.00149313
0.00215089
0.00292196
0.00379797
0.00473277
0.00563485
0.00635347
0.00680357
0.00661864
-0.0010865
-0.00114405
-0.00112371
-0.00108759
-0.00102145
-0.000922273
-0.000783233
-0.000594831
-0.000344834
-1.77123e-05
0.000405634
0.000947623
0.00163145
0.00247417
0.00348575
0.00463256
0.00581605
0.00683785
0.00751987
0.00728178
-0.00147429
-0.00154009
-0.00152935
-0.00150989
-0.00146715
-0.00139864
-0.00129767
-0.0011544
-0.000955405
-0.000682588
-0.000311978
0.000187499
0.000853374
0.00172479
0.00284544
0.00421482
0.00576356
0.00727799
0.00838727
0.00822782
-0.00191421
-0.00198955
-0.0019893
-0.00198907
-0.00197442
-0.00194426
-0.00189307
-0.00181208
-0.00168862
-0.00150452
-0.00123385
-0.000839948
-0.000271751
0.000534913
0.00162581
0.00310851
0.0050123
0.00726441
0.00916169
0.0095272
-0.0024041
-0.0024901
-0.00249982
-0.00251987
-0.00253655
-0.00255121
-0.00256094
-0.00255993
-0.00253908
-0.00248454
-0.00237567
-0.0021818
-0.00185679
-0.00133554
-0.000540285
0.00060602
0.0024593
0.00541372
0.00863274
0.0106106
-0.00294251
-0.0030394
-0.00305552
-0.00309386
-0.00314205
-0.00320502
-0.00328376
-0.00337752
-0.00348418
-0.00359987
-0.0037189
-0.00383468
-0.00394377
-0.00406256
-0.00424642
-0.0044487
-0.00404227
-0.00126259
0.00343686
0.00868368
-0.00353204
-0.00364048
-0.00365643
-0.00370689
-0.00378068
-0.00388846
-0.00403679
-0.00423207
-0.00448216
-0.00479925
-0.0052041
-0.00573603
-0.00647722
-0.00761163
-0.00949229
-0.0122283
-0.0147078
-0.0128752
-0.00716651
0.00178691
-0.00417169
-0.00427981
-0.00427442
-0.00432083
-0.00441063
-0.00455785
-0.00477174
-0.00506482
-0.0054566
-0.00597741
-0.00667987
-0.00766079
-0.0091088
-0.0113775
-0.0150871
-0.0202928
-0.0260943
-0.0260603
-0.0208215
-0.0086175
-0.0048968
-0.00502431
-0.0049838
-0.00501659
-0.005095
-0.00524841
-0.00549356
-0.00585147
-0.00635078
-0.00703547
-0.00798138
-0.00932136
-0.0113199
-0.0144081
-0.0193745
-0.0260192
-0.0344565
-0.0361571
-0.032858
-0.0174251
-0.00580722
-0.00572312
-0.00556655
-0.00549498
-0.00554332
-0.00571251
-0.00600457
-0.00643008
-0.00701616
-0.00780949
-0.00889521
-0.0104109
-0.0126722
-0.0160246
-0.0214987
-0.0281854
-0.0378237
-0.0394567
-0.0380363
-0.0177218
-0.00634693
-0.00678604
-0.00650115
-0.00648895
-0.0064406
-0.00650718
-0.00670262
-0.00705631
-0.00759861
-0.0083672
-0.00944482
-0.0109324
-0.0131903
-0.0163249
-0.0215314
-0.0274985
-0.0351503
-0.0361674
-0.0330149
-0.00353279
-0.00994859
-0.00736945
-0.00672103
-0.00609859
-0.00600254
-0.00614551
-0.00647118
-0.00693697
-0.00755952
-0.00835099
-0.00941807
-0.0107928
-0.012838
-0.015629
-0.0198455
-0.0242229
-0.0288137
-0.0267798
-0.0175046
0.0280537
-0.00643693
-0.00947366
-0.00853117
-0.00858337
-0.00813897
-0.00788355
-0.00779184
-0.00790316
-0.00824806
-0.0088024
-0.00966561
-0.0108435
-0.0127235
-0.0152354
-0.0193828
-0.0230686
-0.0263894
-0.0163178
0.00748452
0.0844921
-0.0318994
-0.00676644
-0.00538913
-0.00466522
-0.00444361
-0.0046295
-0.00510003
-0.00566371
-0.00641124
-0.00722865
-0.00840868
-0.00975879
-0.0117656
-0.0139512
-0.0164004
-0.0158236
-0.00927398
0.0207953
0.0858796
0.217342
4.75444e-05
2.41762e-05
6.6671e-05
0.000149015
0.000278312
0.000455225
0.000681332
0.000958404
0.00128743
0.00166789
0.00209675
0.00256733
0.00306811
0.00358158
0.00408347
0.00454347
0.00492694
0.00519901
0.00535436
0.00532754
7.24935e-05
4.8259e-05
9.55587e-05
0.000178051
0.000304835
0.000477238
0.000697381
0.000967394
0.00128859
0.00166083
0.00208162
0.00254489
0.00303955
0.00354941
0.00405047
0.0045124
0.00489967
0.00517653
0.00534013
0.00530859
2.45572e-05
-7.03014e-06
3.88995e-05
0.000118201
0.000241008
0.000408816
0.000624279
0.000890298
0.00120919
0.00158204
0.00200774
0.00248174
0.00299519
0.00353149
0.00406601
0.00456547
0.00498883
0.00529204
0.00547062
0.0054217
-7.53711e-05
-0.000112061
-6.84226e-05
6.34887e-06
0.000123463
0.000284761
0.000493707
0.000754347
0.00107052
0.00144528
0.00187981
0.00237205
0.00291506
0.00349481
0.00408565
0.00464989
0.00513693
0.00548815
0.00569507
0.00562545
-0.000234651
-0.00027608
-0.00023607
-0.000167428
-5.78841e-05
9.48582e-05
0.000295265
0.000548838
0.00086142
0.00123872
0.00168532
0.00220298
0.0027883
0.00343049
0.00410401
0.00476604
0.00535306
0.00578303
0.00603737
0.00593603
-0.000452429
-0.000498967
-0.000463916
-0.000403359
-0.000304025
-0.000163135
2.48683e-05
0.000267132
0.000571876
0.000948137
0.001405
0.00194981
0.00258496
0.00330591
0.00409077
0.00489203
0.0056292
0.00618521
0.00651852
0.00636576
-0.000727262
-0.000779763
-0.000751158
-0.000701212
-0.000615738
-0.000491598
-0.000322231
-9.88509e-05
0.000189298
0.00055506
0.00101304
0.00157812
0.00226225
0.00307019
0.00399349
0.0049827
0.00593947
0.00669837
0.00716867
0.00693658
-0.00105764
-0.00111728
-0.00109678
-0.00106047
-0.000993442
-0.000892525
-0.000750516
-0.000557352
-0.000300008
3.81522e-05
0.000477738
0.00104311
0.00175932
0.00264321
0.0037197
0.0049441
0.00621115
0.00730126
0.00802085
0.00769165
-0.0014416
-0.0015097
-0.00149888
-0.00147941
-0.00143597
-0.00136593
-0.0012622
-0.00111432
-0.000908021
-0.000623977
-0.000236538
0.000287359
0.000984818
0.00187345
0.0031028
0.00457756
0.00624841
0.00788143
0.0090563
0.00873646
-0.00187673
-0.00195462
-0.00195447
-0.00195456
-0.00193963
-0.00190845
-0.00185514
-0.00177033
-0.00164057
-0.00144648
-0.00116038
-0.00074256
-0.000134769
0.000756581
0.00188398
0.0034676
0.00552022
0.0079684
0.0099684
0.0101087
-0.00236038
-0.00244924
-0.00245936
-0.00248025
-0.00249734
-0.00251188
-0.00252064
-0.00251738
-0.00249244
-0.00243128
-0.00231231
-0.00210355
-0.00175656
-0.00120379
-0.000383072
0.00079495
0.00273163
0.00592561
0.00930804
0.0111656
-0.00289035
-0.00299047
-0.0030074
-0.00304734
-0.00309692
-0.00316106
-0.0032405
-0.00333431
-0.00344029
-0.00355478
-0.00367294
-0.00379058
-0.00391009
-0.00406465
-0.0043498
-0.00475117
-0.00455807
-0.00157717
0.00341405
0.00880769
-0.0034682
-0.00358051
-0.00359793
-0.00365105
-0.0037275
-0.00383799
-0.00398901
-0.00418707
-0.0044406
-0.00476328
-0.00517935
-0.00573622
-0.0065338
-0.0077965
-0.00997622
-0.0132411
-0.0163497
-0.0144742
-0.00844123
0.0010571
-0.00409109
-0.00420375
-0.00420051
-0.00425082
-0.00434482
-0.0044966
-0.00471535
-0.00501388
-0.00541275
-0.0059448
-0.00666826
-0.00769289
-0.00923528
-0.0117059
-0.01587
-0.0218248
-0.0285699
-0.0286603
-0.0230734
-0.0102219
-0.00479374
-0.00492719
-0.00488959
-0.0049284
-0.00501284
-0.00517261
-0.00542429
-0.00578926
-0.00629724
-0.00699465
-0.00796285
-0.00934692
-0.0114412
-0.0147255
-0.02014
-0.0274037
-0.0364974
-0.0379806
-0.034188
-0.0187956
-0.00566951
-0.00559308
-0.00544123
-0.0053777
-0.00543388
-0.00561144
-0.00591194
-0.00634579
-0.00694047
-0.00774397
-0.00884486
-0.0103869
-0.0127099
-0.0161675
-0.0219266
-0.0287952
-0.038398
-0.0394814
-0.0373356
-0.0178449
-0.00617012
-0.00662412
-0.00633888
-0.0063403
-0.00630197
-0.00637869
-0.0065829
-0.00694395
-0.00749216
-0.00826533
-0.00934674
-0.0108384
-0.0131173
-0.016266
-0.021549
-0.027508
-0.0345119
-0.0348316
-0.0308573
-0.00255448
-0.00970251
-0.00714933
-0.00650697
-0.00590017
-0.00581366
-0.00596835
-0.00630514
-0.00678032
-0.00740916
-0.00820285
-0.00926614
-0.0106297
-0.0126631
-0.0154309
-0.0196184
-0.0238394
-0.0279238
-0.0252109
-0.0151527
0.0297349
-0.00617751
-0.00925117
-0.00829175
-0.00836185
-0.00792342
-0.00767766
-0.00759421
-0.00771133
-0.00806023
-0.00861301
-0.00947152
-0.0106374
-0.0125128
-0.01502
-0.0191794
-0.0227914
-0.0257543
-0.0150069
0.00953778
0.0868599
-0.0316027
-0.0064693
-0.00508298
-0.00436795
-0.00416533
-0.0043715
-0.004859
-0.00543576
-0.00619238
-0.00701185
-0.00819023
-0.00953141
-0.011524
-0.0136904
-0.0160772
-0.0153516
-0.00839354
0.0223592
0.088322
0.220567
5.97569e-05
3.61096e-05
7.87303e-05
0.000161448
0.000291593
0.000469908
0.000698097
0.000978084
0.00131103
0.00169659
0.00213187
0.00261027
0.00312019
0.00364379
0.00415624
0.00462629
0.00501816
0.00529578
0.00545376
0.0054251
8.53598e-05
6.07611e-05
0.000108225
0.000191105
0.000318736
0.000492522
0.000714717
0.000987614
0.00131271
0.00169006
0.00211734
0.00258854
0.00309263
0.00361304
0.0041252
0.00459782
0.00499411
0.00527697
0.00544352
0.0054103
3.8597e-05
6.58864e-06
5.27071e-05
0.000132411
0.000256098
0.000425342
0.000642954
0.000912026
0.0012351
0.00161352
0.00204639
0.00252938
0.00305368
0.0036024
0.00415027
0.00466289
0.00509757
0.00540834
0.00559059
0.0055389
-5.97669e-05
-9.69235e-05
-5.30646e-05
2.21413e-05
0.000140196
0.000303033
0.000514305
0.000778297
0.00109914
0.00148022
0.00192308
0.00242595
0.0029822
0.00357757
0.00418569
0.00476745
0.00526987
0.00563145
0.0058434
0.00576877
-0.000217269
-0.000259203
-0.00021894
-0.00014982
-3.92488e-05
0.000115187
0.000318181
0.000575535
0.000893473
0.00127817
0.00173472
0.0022654
0.00286729
0.0035298
0.00422654
0.0049129
0.00552209
0.00596715
0.00622886
0.00611772
-0.000433037
-0.000480116
-0.000444787
-0.000383714
-0.000283262
-0.000140514
5.03641e-05
0.000296893
0.000607781
0.000992686
0.00146143
0.00202216
0.00267799
0.00342581
0.00424227
0.00507801
0.00584801
0.006427
0.00677182
0.00659912
-0.000705566
-0.00075865
-0.000729764
-0.000679293
-0.000592652
-0.000466541
-0.000294074
-6.60132e-05
0.000229005
0.000604626
0.00107645
0.00166019
0.00236639
0.0032129
0.00417868
0.00521662
0.00622261
0.00701794
0.00750725
0.00723428
-0.00103324
-0.00109351
-0.00107277
-0.001036
-0.000967846
-0.000864974
-0.000719813
-0.000521788
-0.000257156
9.17252e-05
0.000546916
0.00113511
0.00188675
0.00281148
0.00393875
0.00522957
0.00657007
0.00772003
0.00847264
0.00806199
-0.00141393
-0.00148274
-0.00147178
-0.001452
-0.00140762
-0.00133586
-0.00122922
-0.00107674
-0.000863369
-0.000568716
-0.000165544
0.000381726
0.00111565
0.00207529
0.00334394
0.00490208
0.00667841
0.0084136
0.0096435
0.00917412
-0.00184497
-0.00192367
-0.00192356
-0.00192363
-0.00190816
-0.00187576
-0.00182019
-0.00173164
-0.00159597
-0.0013929
-0.00109341
-0.00065608
-2.21708e-05
0.000886003
0.00209831
0.00377543
0.00595938
0.00857977
0.0106642
0.0105809
-0.00232334
-0.00241314
-0.00242359
-0.00244492
-0.00246207
-0.0024762
-0.00248382
-0.00247836
-0.00244982
-0.00238318
-0.00225635
-0.00203689
-0.00167609
-0.00110769
-0.0002625
0.000942128
0.00296158
0.00638419
0.00988134
0.0116188
-0.00284633
-0.00294754
-0.00296517
-0.00300616
-0.00305664
-0.00312146
-0.00320127
-0.00329507
-0.00340078
-0.00351512
-0.00363442
-0.00375705
-0.00389107
-0.0040842
-0.00446319
-0.00503525
-0.004989
-0.00178342
0.00345352
0.00895479
-0.00341483
-0.00352848
-0.00354713
-0.00360209
-0.00368044
-0.00379289
-0.00394599
-0.00414652
-0.00440363
-0.0047326
-0.0051612
-0.00574452
-0.00659819
-0.00798134
-0.0104342
-0.0141758
-0.0178018
-0.0157614
-0.00936013
0.000586795
-0.00402497
-0.00413922
-0.00413777
-0.00419082
-0.00428776
-0.00444283
-0.00466531
-0.00496851
-0.00537419
-0.00591781
-0.00666315
-0.00773222
-0.00936723
-0.0120284
-0.0166195
-0.0232704
-0.0307866
-0.0307937
-0.0247319
-0.0113417
-0.00471165
-0.0048472
-0.00481183
-0.00485458
-0.00494304
-0.00510721
-0.00536372
-0.00573449
-0.00625049
-0.00696085
-0.00795266
-0.00938309
-0.0115768
-0.0150523
-0.0209108
-0.0288237
-0.0384648
-0.0396281
-0.035379
-0.0197657
-0.00556358
-0.00549009
-0.0053418
-0.00528359
-0.00534479
-0.00552771
-0.00583384
-0.00627381
-0.00687581
-0.00768962
-0.00880827
-0.0103821
-0.0127813
-0.0163541
-0.0224322
-0.0298636
-0.0389563
-0.0398244
-0.0373968
-0.0178718
-0.00604763
-0.00650669
-0.00621981
-0.00622781
-0.00619434
-0.00627643
-0.00648557
-0.006851
-0.00740345
-0.00818103
-0.00927103
-0.0107745
-0.0130979
-0.0162653
-0.0216715
-0.0277278
-0.0344172
-0.034174
-0.0300423
-0.00171219
-0.00952728
-0.00698994
-0.00635597
-0.00575995
-0.00567827
-0.00583764
-0.00617886
-0.00665771
-0.00728945
-0.00808384
-0.00914875
-0.0105082
-0.0125496
-0.0153052
-0.0195003
-0.0236272
-0.0274113
-0.0242287
-0.013951
0.0311022
-0.0060484
-0.00912784
-0.00814801
-0.00822287
-0.00778236
-0.0075364
-0.00745343
-0.00756962
-0.00791881
-0.00846875
-0.00932695
-0.0104885
-0.0123757
-0.0148693
-0.0190508
-0.0225887
-0.0253181
-0.0140326
0.0108964
0.0886345
-0.0314204
-0.0062943
-0.00490184
-0.00418605
-0.00398939
-0.00420182
-0.00469625
-0.00527591
-0.00603711
-0.00685464
-0.00803662
-0.00937123
-0.0113678
-0.0135115
-0.0158633
-0.0149927
-0.00777483
0.023535
0.0899585
0.222669
7.05322e-05
4.69073e-05
8.97811e-05
0.000172998
0.000304039
0.000483737
0.000713918
0.000996647
0.00133324
0.00172349
0.00216463
0.00265011
0.00316825
0.00370094
0.00422282
0.00470189
0.00510139
0.00538426
0.00554495
0.00551517
9.64096e-05
7.17642e-05
0.000119485
0.000202874
0.000331415
0.000506598
0.000730802
0.00100646
0.00133524
0.00171737
0.00215063
0.00262907
0.00314171
0.00367161
0.00419373
0.00467594
0.00508041
0.00536891
0.00553844
0.00550425
5.04306e-05
1.83666e-05
6.47604e-05
0.000144998
0.000269636
0.000440346
0.000660077
0.000932095
0.00125914
0.00164275
0.00208225
0.00257344
0.00310753
0.00366737
0.00422714
0.00475145
0.00519627
0.00551402
0.00569989
0.00564641
-4.68119e-05
-8.40298e-05
-3.98713e-05
3.59048e-05
0.000154978
0.000319391
0.000532963
0.00080019
0.00112546
0.00151243
0.00196295
0.00247549
0.00304362
0.00365283
0.00427617
0.00487327
0.00538924
0.00576018
0.00597691
0.00589874
-0.000202947
-0.000244945
-0.000204357
-0.000134624
-2.295e-05
0.000133204
0.000338735
0.000599709
0.000922679
0.00131421
0.00177984
0.00232229
0.00293898
0.00361921
0.00433607
0.00504342
0.00567173
0.00612999
0.00639843
0.00627992
-0.000417112
-0.000464256
-0.000428585
-0.000366862
-0.00026523
-0.000120624
7.30369e-05
0.000323598
0.000640187
0.00103299
0.00151246
0.00208747
0.00276185
0.00353254
0.00437585
0.00524076
0.00603844
0.0066369
0.00699175
0.00680357
-0.000687772
-0.000740926
-0.000711702
-0.000660577
-0.00057272
-0.000444664
-0.000269237
-3.68158e-05
0.000264484
0.00064899
0.00113318
0.00173399
0.00246416
0.00333857
0.00433946
0.00541782
0.00646444
0.00728964
0.00779471
0.00748945
-0.00101324
-0.0010736
-0.00105256