/*--------------------------------*- C++ -*----------------------------------*\
  =========                 |
  \\      /  F ield         | OpenFOAM: The Open Source CFD Toolbox
   \\    /   O peration     | Website:  https://openfoam.org
    \\  /    A nd           | Version:  10
     \\/     M anipulation  |
\*---------------------------------------------------------------------------*/
FoamFile
{
    format      ascii;
    class       surfaceScalarField;
    location    "6.425";
    object      phi;
}
// * * * * * * * * * * * * * * * * * * * * * * * * * * * * * * * * * * * * * //

dimensions      [0 3 -1 0 0 0 0];

internalField   nonuniform List<scalar> 
22800
(
-2.44277e-06
2.96108e-06
-5.26616e-07
-7.87653e-06
5.54176e-06
-1.08e-07
-1.43207e-05
6.34634e-06
9.78171e-08
-2.11136e-05
6.5826e-06
2.10346e-07
-2.79842e-05
6.6563e-06
2.14268e-07
-3.4806e-05
6.67627e-06
1.45559e-07
-4.14503e-05
6.63198e-06
1.23125e-08
-4.77629e-05
6.47114e-06
-1.58539e-07
-5.35008e-05
6.13925e-06
-4.01396e-07
-5.83487e-05
5.57188e-06
-7.23914e-07
-6.19164e-05
4.70261e-06
-1.13498e-06
-6.37494e-05
3.47319e-06
-1.64013e-06
-6.33638e-05
1.85144e-06
-2.23712e-06
-6.02847e-05
-1.63411e-07
-2.9156e-06
-5.41887e-05
-2.48453e-06
-3.61146e-06
-4.50145e-05
-4.9323e-06
-4.24192e-06
-3.31658e-05
-7.17145e-06
-4.67724e-06
-1.97742e-05
-8.65402e-06
-4.73762e-06
-6.97749e-06
-8.51491e-06
-4.28179e-06
-4.61873e-06
-2.35875e-06
-4.89203e-06
9.40903e-06
-1.55593e-06
-1.41493e-05
1.60838e-05
-1.28477e-06
-2.48576e-05
1.81534e-05
-1.09866e-06
-3.60109e-05
1.86752e-05
-9.39267e-07
-4.71677e-05
1.86825e-05
-8.69434e-07
-5.80849e-05
1.84575e-05
-8.63962e-07
-6.85379e-05
1.79971e-05
-9.12186e-07
-7.82498e-05
1.72055e-05
-1.02251e-06
-8.68586e-05
1.59559e-05
-1.20785e-06
-9.3906e-05
1.41034e-05
-1.48413e-06
-9.88326e-05
1.14961e-05
-1.86695e-06
-0.000100994
8.00186e-06
-2.36739e-06
-9.97458e-05
3.58715e-06
-2.98378e-06
-9.44674e-05
-1.72937e-06
-3.71241e-06
-8.46675e-05
-7.82062e-06
-4.46376e-06
-7.03059e-05
-1.41404e-05
-5.15353e-06
-5.19888e-05
-1.98802e-05
-5.60842e-06
-3.13637e-05
-2.36766e-05
-5.60247e-06
-1.15654e-05
-2.33578e-05
-4.95548e-06
-1.37474e-05
-2.43667e-06
-5.73082e-06
1.72468e-05
-2.107e-06
-1.63972e-05
2.8697e-05
-1.94684e-06
-2.86375e-05
3.21681e-05
-1.77444e-06
-4.13216e-05
3.29394e-05
-1.58007e-06
-5.3969e-05
3.27963e-05
-1.4664e-06
-6.63215e-05
3.22215e-05
-1.41151e-06
-7.81434e-05
3.12272e-05
-1.40821e-06
-8.91442e-05
2.96752e-05
-1.46885e-06
-9.89439e-05
2.73684e-05
-1.61275e-06
-0.000107055
2.4077e-05
-1.8628e-06
-0.000112876
1.95589e-05
-2.24189e-06
-0.000115703
1.35982e-05
-2.76888e-06
-0.000114731
6.07303e-06
-3.45819e-06
-0.000109157
-3.02365e-06
-4.27932e-06
-9.83627e-05
-1.34432e-05
-5.17199e-06
-8.2139e-05
-2.43447e-05
-6.01934e-06
-6.10539e-05
-3.43631e-05
-6.60215e-06
-3.69647e-05
-4.11369e-05
-6.62888e-06
-1.36261e-05
-4.08336e-05
-5.86284e-06
-2.45612e-05
-2.81234e-06
-5.95404e-06
2.57285e-05
-2.52762e-06
-1.71425e-05
4.23613e-05
-2.47587e-06
-2.99716e-05
4.73205e-05
-2.32329e-06
-4.32748e-05
4.83547e-05
-2.11207e-06
-5.65817e-05
4.80759e-05
-1.97267e-06
-6.96603e-05
4.7188e-05
-1.88797e-06
-8.23052e-05
4.57268e-05
-1.85471e-06
-9.4254e-05
4.35159e-05
-1.8919e-06
-0.000105149
4.02883e-05
-2.0251e-06
-0.000114504
3.5717e-05
-2.28534e-06
-0.000121681
2.94418e-05
-2.70579e-06
-0.00012588
2.11142e-05
-3.3169e-06
-0.000126157
1.04876e-05
-4.13771e-06
-0.000121483
-2.4975e-06
-5.19945e-06
-0.000110834
-1.77213e-05
-6.37113e-06
-9.36586e-05
-3.39941e-05
-7.52595e-06
-7.03083e-05
-4.93415e-05
-8.37203e-06
-4.28157e-05
-6.01205e-05
-8.50888e-06
-1.57346e-05
-6.03116e-05
-7.60311e-06
-3.65459e-05
-3.7498e-06
-5.97178e-06
3.45723e-05
-2.87205e-06
-1.74156e-05
5.67197e-05
-2.91464e-06
-3.05835e-05
6.32711e-05
-2.78266e-06
-4.42913e-05
6.46273e-05
-2.56485e-06
-5.80935e-05
6.42958e-05
-2.41779e-06
-7.18042e-05
6.32276e-05
-2.32892e-06
-8.52732e-05
6.14947e-05
-2.2988e-06
-9.82957e-05
5.88903e-05
-2.35187e-06
-0.000110565
5.508e-05
-2.52263e-06
-0.000121624
4.96295e-05
-2.85355e-06
-0.000130813
4.20254e-05
-3.39404e-06
-0.000137229
3.17247e-05
-4.19512e-06
-0.000139682
1.82491e-05
-5.30856e-06
-0.000136857
1.42243e-06
-6.74448e-06
-0.000127128
-1.90457e-05
-8.4047e-06
-0.000109342
-4.16589e-05
-1.01208e-05
-8.33787e-05
-6.38199e-05
-1.14852e-05
-5.13342e-05
-8.02719e-05
-1.18931e-05
-1.89127e-05
-8.19456e-05
-1.07876e-05
-4.98866e-05
-5.57206e-06
-5.92999e-06
4.37099e-05
-3.20758e-06
-1.75724e-05
7.17049e-05
-3.3427e-06
-3.10399e-05
7.99728e-05
-3.23419e-06
-4.5127e-05
8.17315e-05
-3.017e-06
-5.94199e-05
8.14619e-05
-2.87317e-06
-7.37942e-05
8.03975e-05
-2.79556e-06
-8.81774e-05
7.86683e-05
-2.79043e-06
-0.000102452
7.60541e-05
-2.88895e-06
-0.0001164
7.21637e-05
-3.13625e-06
-0.000129635
6.64557e-05
-3.59093e-06
-0.000141523
5.82388e-05
-4.32541e-06
-0.00015108
4.67029e-05
-5.42114e-06
-0.000156896
3.10215e-05
-6.9564e-06
-0.00015705
1.05702e-05
-8.99382e-06
-0.000149415
-1.51404e-05
-1.154e-05
-0.000131643
-4.51682e-05
-1.42628e-05
-0.000102695
-7.61491e-05
-1.66193e-05
-6.44129e-05
-0.000100901
-1.76526e-05
-2.40778e-05
-0.000105962
-1.6319e-05
-6.51477e-05
-8.81669e-06
-5.86161e-06
5.31555e-05
-3.58397e-06
-1.76959e-05
8.73633e-05
-3.82416e-06
-3.14574e-05
9.74762e-05
-3.74194e-06
-4.59081e-05
9.97094e-05
-3.52721e-06
-6.06707e-05
9.96123e-05
-3.38778e-06
-7.56966e-05
9.87484e-05
-3.325e-06
-9.10154e-05
9.73399e-05
-3.35288e-06
-0.000106633
9.51845e-05
-3.51243e-06
-0.000122471
9.18647e-05
-3.86325e-06
-0.000138282
8.67538e-05
-4.48698e-06
-0.000153537
7.89857e-05
-5.49182e-06
-0.00016726
6.74392e-05
-7.0133e-06
-0.000177824
5.07908e-05
-9.20541e-06
-0.000182791
2.77302e-05
-1.21928e-05
-0.000179168
-2.58482e-06
-1.61788e-05
-0.000162902
-4.07666e-05
-2.06673e-05
-0.000131249
-8.28492e-05
-2.49535e-05
-8.48956e-05
-0.000119758
-2.74962e-05
-3.29087e-05
-0.000131819
-2.61299e-05
-8.32937e-05
-1.47627e-05
-5.76979e-06
6.29585e-05
-4.03321e-06
-1.77942e-05
0.000103789
-4.40149e-06
-3.18267e-05
0.000115855
-4.34652e-06
-4.65795e-05
0.00011859
-4.12752e-06
-6.17138e-05
0.00011873
-3.98336e-06
-7.72696e-05
0.000118231
-3.92684e-06
-9.34023e-05
0.000117455
-3.98254e-06
-0.000110282
0.000116269
-4.20487e-06
-0.00012803
0.000114286
-4.67313e-06
-0.000146634
0.000110858
-5.50117e-06
-0.000165798
0.000105001
-6.8512e-06
-0.000184726
9.53144e-05
-8.94756e-06
-0.000201791
7.9927e-05
-1.20707e-05
-0.000214142
5.6601e-05
-1.65201e-05
-0.000217357
2.32338e-05
-2.2604e-05
-0.00020591
-2.19084e-05
-3.03047e-05
-0.000173597
-7.67866e-05
-3.83753e-05
-0.000118064
-0.000130808
-4.44835e-05
-4.91565e-05
-0.000156503
-4.42229e-05
-0.000105695
-2.67549e-05
-5.66808e-06
7.32116e-05
-4.58507e-06
-1.789e-05
0.000121125
-5.11364e-06
-3.21477e-05
0.000135197
-5.08355e-06
-4.70808e-05
0.000138367
-4.84382e-06
-6.2387e-05
0.000138709
-4.67337e-06
-7.82034e-05
0.000138647
-4.59972e-06
-9.48296e-05
0.000138743
-4.66148e-06
-0.000112633
0.000139003
-4.93014e-06
-0.000132
0.000139163
-5.5102e-06
-0.000153257
0.000138674
-6.55819e-06
-0.000176526
0.000136583
-8.31232e-06
-0.000201447
0.000131364
-1.11285e-05
-0.00022674
0.000120723
-1.55036e-05
-0.000249529
0.000101446
-2.20549e-05
-0.000264492
6.96223e-05
-3.1426e-05
-0.000263875
2.18362e-05
-4.43618e-05
-0.00023668
-4.44413e-05
-5.95402e-05
-0.000173838
-0.000120135
-7.35142e-05
-8.11865e-05
-0.000171495
-7.76604e-05
-0.000134258
-5.26237e-05
-5.60452e-06
8.40953e-05
-5.27909e-06
-1.80719e-05
0.000139602
-6.0102e-06
-3.25016e-05
0.000155623
-5.99719e-06
-4.74341e-05
0.000159007
-5.70738e-06
-6.26009e-05
0.000159349
-5.47278e-06
-7.82389e-05
0.000159625
-5.33948e-06
-9.47954e-05
0.000160663
-5.36332e-06
-0.000112846
0.000162689
-5.63565e-06
-0.00013308
0.000165689
-6.29129e-06
-0.000156262
0.000169396
-7.54007e-06
-0.000183123
0.000173158
-9.71509e-06
-0.000214098
0.000175686
-1.33464e-05
-0.00024883
0.000174712
-1.92573e-05
-0.000285312
0.000166521
-2.85927e-05
-0.000318567
0.000145589
-4.27117e-05
-0.000338403
0.000104593
-6.29207e-05
-0.000329446
3.63752e-05
-8.97737e-05
-0.000269032
-6.28399e-05
-0.000117709
-0.000146176
-0.000161973
-0.000132378
-0.000176208
-0.000104226
-5.69077e-06
9.59642e-05
-6.17817e-06
-1.85483e-05
0.000159625
-7.16545e-06
-3.3118e-05
0.000177346
-7.1528e-06
-4.78215e-05
0.000180475
-6.76513e-06
-6.24247e-05
0.000180359
-6.40632e-06
-7.72678e-05
0.000180614
-6.14598e-06
-9.29291e-05
0.000182384
-6.06008e-06
-0.000110164
0.000186184
-6.25941e-06
-0.000129933
0.000192366
-6.90857e-06
-0.000153439
0.000201174
-8.27272e-06
-0.000182137
0.000212636
-1.07795e-05
-0.00021762
0.000226323
-1.51543e-05
-0.00026122
0.000240896
-2.25845e-05
-0.000313196
0.000253322
-3.48243e-05
-0.000371283
0.000257695
-5.40189e-05
-0.000427124
0.000242271
-8.18372e-05
-0.000457703
0.000184975
-0.000118021
-0.00042089
5.52206e-05
-0.000154874
-0.000267811
-0.000139165
-0.000175887
-0.000273972
-0.000170046
-6.1519e-06
0.000109509
-7.3924e-06
-1.97239e-05
0.000181904
-8.70646e-06
-3.44591e-05
0.00020075
-8.66843e-06
-4.86704e-05
0.000202794
-8.10743e-06
-6.21832e-05
0.0002014
-7.52886e-06
-7.54529e-05
0.000200922
-7.03819e-06
-8.91525e-05
0.000202819
-6.73533e-06
-0.000104131
0.000207908
-6.74612e-06
-0.000121501
0.000216993
-7.25614e-06
-0.000142758
0.000231007
-8.5753e-06
-0.00016996
0.000251028
-1.119e-05
-0.000205858
0.000278159
-1.59382e-05
-0.000254011
0.000313209
-2.41601e-05
-0.00031857
0.000355389
-3.75082e-05
-0.000403187
0.000399088
-5.67761e-05
-0.000505084
0.000423202
-7.90339e-05
-0.000602968
0.000376523
-9.36644e-05
-0.000622244
0.000158502
-8.40049e-05
-0.00044608
-0.000238352
-7.69767e-05
-0.00055971
-0.000160342
-7.41651e-06
0.000126028
-9.1034e-06
-2.23219e-05
0.000207586
-1.07769e-05
-3.73323e-05
0.00022638
-1.06203e-05
-5.07498e-05
0.000225965
-9.75417e-06
-6.256e-05
0.000222043
-8.83239e-06
-7.33519e-05
0.000219709
-7.99536e-06
-8.38587e-05
0.000220679
-7.3527e-06
-9.4864e-05
0.000225939
-7.026e-06
-0.00010738
0.000236713
-7.20477e-06
-0.000122837
0.000254654
-8.19076e-06
-0.000143427
0.000282062
-1.04435e-05
-0.000172507
0.000321833
-1.45949e-05
-0.000215587
0.000377588
-2.12983e-05
-0.000281308
0.000450522
-2.94119e-05
-0.000383854
0.000533034
-3.13998e-05
-0.000536513
0.000583091
-7.22929e-06
-0.000735802
0.000502933
7.28787e-05
-0.000865325
8.8216e-05
0.000199809
-0.00064882
-0.000682395
0.000227539
-0.00117668
-3.18516e-05
-1.04671e-05
0.000148337
-1.18415e-05
-2.77552e-05
0.000239021
-1.41469e-05
-4.30818e-05
0.000255605
-1.38985e-05
-5.51487e-05
0.000250576
-1.25436e-05
-6.44886e-05
0.000242337
-1.09547e-05
-7.19242e-05
0.000236562
-9.41779e-06
-7.80655e-05
0.000234939
-8.11917e-06
-8.34518e-05
0.000238538
-7.21237e-06
-8.86865e-05
0.000248788
-6.83999e-06
-9.45883e-05
0.000267772
-7.21643e-06
-0.000102714
0.000298795
-8.60775e-06
-0.000115866
0.000345861
-1.08753e-05
-0.000140976
0.000415231
-1.25336e-05
-0.000192333
0.000507489
-5.6104e-06
-0.000307027
0.000614583
3.31447e-05
-0.000537461
0.00066541
0.000148115
-0.000901394
0.000497172
0.000369695
-0.00113075
-0.000267985
0.000585561
-0.000819817
-0.00149002
0.000496691
-0.0020298
3.33028e-05
-1.57939e-05
0.000179929
-1.57983e-05
-3.67696e-05
0.000277887
-1.78905e-05
-5.28258e-05
0.000288751
-1.70892e-05
-6.38326e-05
0.000276385
-1.48024e-05
-7.03551e-05
0.000261309
-1.24486e-05
-7.35225e-05
0.00024995
-1.02201e-05
-7.40419e-05
0.000243744
-8.28504e-06
-7.21442e-05
0.000243394
-6.75401e-06
-6.77428e-05
0.00025012
-5.733e-06
-6.04886e-05
0.000265797
-5.27839e-06
-5.05914e-05
0.00029423
-5.33256e-06
-3.92013e-05
0.000338897
-4.42598e-06
-3.4662e-05
0.000408958
1.73332e-06
-6.02829e-05
0.000503721
2.93897e-05
-0.000182373
0.000620291
0.000116383
-0.000497479
0.000660311
0.000320204
-0.00100715
0.000378451
0.000628394
-0.00125833
-0.000796839
0.000780033
-0.000933244
-0.0022668
0.000451692
-0.00288035
-8.26917e-05
-3.68447e-05
0.000240705
-2.39307e-05
-6.12223e-05
0.00033023
-2.79649e-05
-7.41254e-05
0.00032779
-2.61356e-05
-7.85931e-05
0.000303189
-2.23365e-05
-7.86721e-05
0.000279306
-1.79181e-05
-7.58781e-05
0.000260865
-1.37091e-05
-7.0373e-05
0.000248282
-1.00432e-05
-6.1324e-05
0.000241435
-7.08977e-06
-4.7495e-05
0.000241229
-4.93833e-06
-2.67785e-05
0.000248574
-3.49354e-06
3.09605e-06
0.00026685
-2.49419e-06
4.16219e-05
0.00029948
8.91469e-07
8.40122e-05
0.000354313
1.2255e-05
0.000105347
0.000429813
5.25727e-05
2.64683e-05
0.000534057
0.000165114
-0.000270119
0.000557837
0.000399061
-0.000774324
0.000189522
0.000693135
-0.00110574
-0.001161
0.000695575
-0.000950152
-0.00268969
0.000267306
-0.00356657
-0.000263934
-3.09176e-05
0.000311147
-3.95249e-05
-7.26252e-05
0.000410543
-3.86055e-05
-9.34477e-05
0.000382765
-3.41527e-05
-0.000101716
0.000337402
-2.59447e-05
-9.91416e-05
0.000296114
-1.93832e-05
-8.94022e-05
0.000264488
-1.33622e-05
-7.44391e-05
0.000241586
-8.26751e-06
-5.42596e-05
0.000225487
-4.23144e-06
-2.78058e-05
0.000216228
-1.45307e-06
8.02089e-06
0.000212538
2.08682e-07
5.6269e-05
0.000217489
1.1128e-06
0.000122006
0.000230219
3.52419e-06
0.000204402
0.000258109
1.38075e-05
0.000292482
0.000295096
4.66368e-05
0.000331119
0.000350745
0.000144675
0.000202687
0.000350456
0.000335813
-0.000190443
3.25798e-05
0.000550071
-0.000675267
-0.00119165
0.000515469
-0.000791366
-0.00275071
0.000177119
-0.00392344
-0.000434492
-0.000179897
0.000540392
-4.9348e-05
-0.000179342
0.000470733
-6.07453e-05
-0.000154463
0.000415677
-5.77914e-05
-0.000126818
0.000357319
-4.75618e-05
-9.13166e-05
0.000294242
-3.36284e-05
-5.29314e-05
0.000246927
-2.08249e-05
-1.33842e-05
0.000212824
-1.0785e-05
2.86797e-05
0.000186888
-3.46523e-06
7.43333e-05
0.000169351
1.22404e-06
0.000127648
0.000155812
3.41152e-06
0.00019164
0.000150594
2.90287e-06
0.000273819
0.000147
1.03946e-06
0.000374493
0.000154483
2.95267e-06
0.000494084
0.000157608
1.78964e-05
0.000608903
0.000166435
6.94912e-05
0.000651559
0.000119293
0.000188507
0.00050092
-0.000125853
0.000309071
-2.34242e-05
-0.000999645
0.000332341
-0.000410102
-0.00245945
9.54169e-05
-0.0037595
-0.000574041
-0.000370589
0.001079
-0.000168018
-0.000261881
0.000483675
-0.00012165
-0.000108851
0.000353678
-9.10314e-05
5.80326e-05
0.000252202
-6.17664e-05
0.000215843
0.000178988
-4.25562e-05
0.000359425
0.000130748
-2.74029e-05
0.000486884
0.000100978
-1.56127e-05
0.000600707
7.99265e-05
-6.8621e-06
0.000703287
6.76026e-05
-8.32077e-07
0.000799472
5.68784e-05
2.74893e-06
0.000893448
5.36777e-05
2.93988e-06
0.000992546
4.84288e-05
-5.26261e-07
0.00110226
5.02299e-05
-5.46372e-06
0.00122364
4.31517e-05
-6.92011e-06
0.00136303
2.85938e-05
-1.54876e-06
0.00146853
-3.4215e-05
4.80044e-05
0.00145337
-0.000214757
0.000104063
0.00105392
-0.000729394
0.000129202
0.000282406
-0.00170206
1.41188e-05
-0.00276539
-0.000711711
0.00122731
-0.000148315
0.0018693
-0.000158306
0.00237909
-0.000156118
0.00277212
-0.000140831
0.00307388
-0.00012277
0.00331167
-0.000107036
0.00350542
-9.27796e-05
0.00366604
-8.06881e-05
0.00380294
-6.92951e-05
0.00392151
-6.16989e-05
0.00402828
-5.30931e-05
0.00412694
-5.02239e-05
0.00422137
-4.42011e-05
0.00430917
-4.46539e-05
0.00437299
-3.52179e-05
0.00437388
-3.51124e-05
0.00417312
-1.39955e-05
0.00349022
-4.64879e-05
0.0018958
-0.000107637
-0.000869591
-4.26541e-06
4.76196e-06
-1.02317e-06
-1.35997e-05
1.00275e-05
-8.01172e-07
-2.46313e-05
1.17311e-05
-6.0182e-07
-3.60188e-05
1.20747e-05
-4.76776e-07
-4.73041e-05
1.19728e-05
-4.7332e-07
-5.82855e-05
1.16949e-05
-5.67904e-07
-6.87715e-05
1.12487e-05
-7.50409e-07
-7.84764e-05
1.05725e-05
-1.0262e-06
-8.70432e-05
9.57596e-06
-1.41056e-06
-9.40119e-05
8.16333e-06
-1.91851e-06
-9.88248e-05
6.2407e-06
-2.56285e-06
-0.000100847
3.73033e-06
-3.3484e-06
-9.94162e-05
5.97778e-07
-4.26556e-06
-9.39165e-05
-3.14106e-06
-5.2742e-06
-8.39174e-05
-7.30739e-06
-6.30316e-06
-6.93555e-05
-1.15698e-05
-7.23396e-06
-5.08183e-05
-1.5321e-05
-7.89345e-06
-2.9994e-05
-1.74956e-05
-8.0663e-06
-1.04657e-05
-1.62712e-05
-7.53892e-06
-7.88608e-06
-4.93835e-06
-9.76755e-06
1.52166e-05
-2.24306e-06
-2.73219e-05
2.86441e-05
-2.34695e-06
-4.7447e-05
3.29243e-05
-2.16675e-06
-6.79926e-05
3.36454e-05
-1.96434e-06
-8.81087e-05
3.30954e-05
-1.87599e-06
-0.000107335
3.19511e-05
-1.89373e-06
-0.000125252
3.02676e-05
-2.01401e-06
-0.000141369
2.79181e-05
-2.25142e-06
-0.00015509
2.47183e-05
-2.6287e-06
-0.000165702
2.04619e-05
-3.17058e-06
-0.000172374
1.49432e-05
-3.89818e-06
-0.000174179
7.99137e-06
-4.82304e-06
-0.000170266
-3.5615e-07
-5.94295e-06
-0.000159722
-1.02032e-05
-7.19465e-06
-0.000142029
-2.09786e-05
-8.48487e-06
-0.000117215
-3.18792e-05
-9.65879e-06
-8.62568e-05
-4.14106e-05
-1.04767e-05
-5.17703e-05
-4.69375e-05
-1.06471e-05
-1.91822e-05
-4.39764e-05
-9.83837e-06
-2.34195e-05
-6.08547e-06
-1.19934e-05
2.80525e-05
-2.94947e-06
-3.29981e-05
5.09676e-05
-3.26559e-06
-5.68391e-05
5.80987e-05
-3.10789e-06
-8.10224e-05
5.91087e-05
-2.86007e-06
-0.000104587
5.79065e-05
-2.71331e-06
-0.000127011
5.5634e-05
-2.66999e-06
-0.000147827
5.24087e-05
-2.73293e-06
-0.000166501
4.80476e-05
-2.92443e-06
-0.000182389
4.227e-05
-3.27629e-06
-0.000194718
3.47521e-05
-3.8239e-06
-0.000202583
2.51665e-05
-4.60026e-06
-0.00020498
1.32482e-05
-5.62911e-06
-0.000200773
-1.10676e-06
-6.91494e-06
-0.000188916
-1.79399e-05
-8.39899e-06
-0.000168649
-3.64395e-05
-9.9782e-06
-0.000139809
-5.52775e-05
-1.14617e-05
-0.000103355
-7.19243e-05
-1.2542e-05
-6.22797e-05
-8.18149e-05
-1.28268e-05
-2.31464e-05
-7.71013e-05
-1.18711e-05
-4.21251e-05
-7.25317e-06
-1.28233e-05
4.18843e-05
-3.53619e-06
-3.53276e-05
7.50463e-05
-4.05037e-06
-6.08101e-05
8.51811e-05
-3.92315e-06
-8.66377e-05
8.64739e-05
-3.6496e-06
-0.000111843
8.46058e-05
-3.46641e-06
-0.000135932
8.12205e-05
-3.38557e-06
-0.000158467
7.65067e-05
-3.41741e-06
-0.000178947
7.02286e-05
-3.59353e-06
-0.000196748
6.20032e-05
-3.95722e-06
-0.000211088
5.13658e-05
-4.55874e-06
-0.000220998
3.78194e-05
-5.44894e-06
-0.000225307
2.09146e-05
-6.67407e-06
-0.000222757
4.76194e-07
-8.27033e-06
-0.000211769
-2.39522e-05
-1.01757e-05
-0.00019112
-5.11795e-05
-1.22804e-05
-0.000160118
-7.94616e-05
-1.43432e-05
-0.000119417
-0.000105056
-1.59406e-05
-7.23295e-05
-0.000120902
-1.65095e-05
-2.68139e-05
-0.000114819
-1.54013e-05
-6.32402e-05
-9.44859e-06
-1.32221e-05
5.63001e-05
-4.06565e-06
-3.66605e-05
0.000100344
-4.77389e-06
-6.32458e-05
0.000113664
-4.68077e-06
-9.02549e-05
0.000115313
-4.39491e-06
-0.000116749
0.000112878
-4.19624e-06
-0.000142299
0.000108548
-4.10672e-06
-0.000166546
0.0001026
-4.14538e-06
-0.000189065
9.47516e-05
-4.35536e-06
-0.000209299
8.45098e-05
-4.7953e-06
-0.000226491
7.1241e-05
-5.5366e-06
-0.00023962
5.42124e-05
-6.65797e-06
-0.000247347
3.26818e-05
-8.23536e-06
-0.000247963
6.10325e-06
-1.03192e-05
-0.0002395
-2.6193e-05
-1.29669e-05
-0.000219779
-6.33266e-05
-1.59784e-05
-0.000187181
-0.000103108
-1.90724e-05
-0.000141642
-0.000140429
-2.16521e-05
-8.66338e-05
-0.000164975
-2.28277e-05
-3.21841e-05
-0.000158537
-2.15185e-05
-8.77126e-05
-1.32838e-05
-1.35653e-05
7.12688e-05
-4.61106e-06
-3.78945e-05
0.000126857
-5.52624e-06
-6.55751e-05
0.000143583
-5.47178e-06
-9.37908e-05
0.000145693
-5.18091e-06
-0.000121643
0.000142836
-4.97854e-06
-0.000148798
0.000137806
-4.89818e-06
-0.000175012
0.000130994
-4.96979e-06
-0.000199988
0.000122089
-5.25113e-06
-0.000223287
0.000110494
-5.82143e-06
-0.000244239
9.53833e-05
-6.78152e-06
-0.000261824
7.5724e-05
-8.25219e-06
-0.000274539
5.03375e-05
-1.03618e-05
-0.000280272
1.81012e-05
-1.32207e-05
-0.000276323
-2.21404e-05
-1.69961e-05
-0.000259274
-7.04131e-05
-2.15022e-05
-0.000225924
-0.000124352
-2.63694e-05
-0.000174724
-0.000177497
-3.07514e-05
-0.000108792
-0.000215369
-3.31912e-05
-4.09844e-05
-0.000210971
-3.16934e-05
-0.000117904
-1.96095e-05
-1.39559e-05
8.6875e-05
-5.23422e-06
-3.92841e-05
0.000154749
-6.38831e-06
-6.81788e-05
0.000175112
-6.3766e-06
-9.771e-05
0.000177775
-6.07866e-06
-0.000127029
0.000174637
-5.87043e-06
-0.000155921
0.000169173
-5.79989e-06
-0.000184304
0.000161935
-5.91119e-06
-0.000212068
0.000152622
-6.28113e-06
-0.000238978
0.000140558
-7.01659e-06
-0.000264554
0.000124732
-8.26028e-06
-0.000287899
0.000103773
-1.01962e-05
-0.000307467
7.59386e-05
-1.3046e-05
-0.000320754
3.9248e-05
-1.70647e-05
-0.000324328
-8.2744e-06
-2.24852e-05
-0.000313068
-6.85028e-05
-2.93493e-05
-0.000281342
-0.00013952
-3.72254e-05
-0.000224738
-0.000214117
-4.4937e-05
-0.00014454
-0.000272993
-5.007e-05
-5.65511e-05
-0.000276395
-4.86951e-05
-0.000159101
-3.01173e-05
-1.44159e-05
0.000103242
-5.98391e-06
-4.08854e-05
0.000184243
-7.42575e-06
-7.11135e-05
0.000208451
-7.4574e-06
-0.000102023
0.000211695
-7.13827e-06
-0.000132819
0.000208356
-6.90572e-06
-0.000163438
0.000202691
-6.82601e-06
-0.000194004
0.00019548
-6.96132e-06
-0.00022467
0.000186495
-7.41234e-06
-0.000255515
0.000175051
-8.32153e-06
-0.000286407
0.000160012
-9.88824e-06
-0.000316785
0.000139688
-1.23877e-05
-0.000345324
0.000111718
-1.61871e-05
-0.000369432
7.30271e-05
-2.17422e-05
-0.000384907
2.01828e-05
-2.95027e-05
-0.000384999
-5.10091e-05
-4.00054e-05
-0.000360615
-0.000141281
-5.29269e-05
-0.000302298
-0.000244052
-6.67571e-05
-0.000205933
-0.000336242
-7.76002e-05
-8.71738e-05
-0.000361753
-7.76234e-05
-0.000224697
-4.83326e-05
-1.49721e-05
0.00012054
-6.91149e-06
-4.27487e-05
0.000215613
-8.70756e-06
-7.44034e-05
0.000243799
-8.77721e-06
-0.000106667
0.000247523
-8.40745e-06
-0.000138806
0.000243934
-8.11189e-06
-0.000170928
0.000238193
-7.9797e-06
-0.000203411
0.000231396
-8.09493e-06
-0.000236747
0.000223487
-8.58618e-06
-0.000271457
0.000213889
-9.63805e-06
-0.000307965
0.000201482
-1.15199e-05
-0.000346367
0.000184404
-1.46272e-05
-0.000386018
0.00015977
-1.95304e-05
-0.000424876
0.000123378
-2.6996e-05
-0.000458407
6.9647e-05
-3.79878e-05
-0.000479441
-7.60585e-06
-5.37961e-05
-0.000474625
-0.000115788
-7.46704e-05
-0.00042686
-0.000252292
-9.90654e-05
-0.000319012
-0.000396712
-0.000120892
-0.000153411
-0.00047974
-0.000125275
-0.000349662
-8.10693e-05
-1.56978e-05
0.000139045
-8.08581e-06
-4.50092e-05
0.000249238
-1.03234e-05
-7.81708e-05
0.00028138
-1.04164e-05
-0.000111672
0.000285263
-9.94599e-06
-0.000144841
0.000281153
-9.52241e-06
-0.00017798
0.000275255
-9.26325e-06
-0.00021175
0.00026908
-9.27759e-06
-0.000247041
0.000262865
-9.72334e-06
-0.000284933
0.000256319
-1.08294e-05
-0.000326636
0.000248588
-1.29432e-05
-0.000373313
0.000237969
-1.66032e-05
-0.000425693
0.000221449
-2.2645e-05
-0.000483356
0.000194106
-3.23226e-05
-0.0005435
0.000148522
-4.7324e-05
-0.000599335
7.49274e-05
-6.94096e-05
-0.000637457
-3.93758e-05
-0.000101211
-0.000628971
-0.000210531
-0.000140021
-0.000528832
-0.000438956
-0.000175605
-0.000295511
-0.000660719
-0.000184718
-0.000618301
-0.000131099
-1.67544e-05
0.000159232
-9.61116e-06
-4.79652e-05
0.000285687
-1.24033e-05
-8.27349e-05
0.000321487
-1.24899e-05
-0.000117265
0.000324868
-1.18402e-05
-0.00015096
0.000319631
-1.1189e-05
-0.000184332
0.000313171
-1.06888e-05
-0.000218335
0.000307499
-1.0476e-05
-0.000254261
0.000303266
-1.0734e-05
-0.000293793
0.00030067
-1.17279e-05
-0.000339076
0.000299469
-1.38705e-05
-0.000392737
0.000298679
-1.7829e-05
-0.000457759
0.000296014
-2.46983e-05
-0.000537042
0.000287025
-3.62196e-05
-0.000632531
0.000264036
-5.48482e-05
-0.000742638
0.000214232
-8.3217e-05
-0.000855593
0.000112889
-0.000121147
-0.000928707
-9.26762e-05
-0.000162761
-0.000860571
-0.000475725
-0.000186241
-0.000530685
-0.000985049
-0.000181443
-0.00115245
-0.000166578
-1.84589e-05
0.000181955
-1.16567e-05
-5.21847e-05
0.000325862
-1.51557e-05
-8.87248e-05
0.000364549
-1.5191e-05
-0.000123988
0.000366267
-1.4243e-05
-0.000157507
0.000358832
-1.3212e-05
-0.000190029
0.000350956
-1.23016e-05
-0.000222769
0.000345182
-1.1679e-05
-0.000257356
0.000342651
-1.15439e-05
-0.000295989
0.000344223
-1.21755e-05
-0.000341721
0.000350636
-1.40105e-05
-0.000398788
0.000362322
-1.77658e-05
-0.000473014
0.000378924
-2.46221e-05
-0.000572238
0.000398463
-3.63746e-05
-0.000706023
0.00041516
-5.48478e-05
-0.000881354
0.000411638
-7.88509e-05
-0.00108456
0.000333562
-9.64978e-05
-0.00124515
5.18312e-05
-7.75812e-05
-0.00120166
-0.000594461
-8.76572e-06
-0.000759324
-0.00152274
1.83825e-05
-0.00195763
-0.000114494
-2.13431e-05
0.000208678
-1.44825e-05
-5.85963e-05
0.000371163
-1.8825e-05
-9.72063e-05
0.000411214
-1.86753e-05
-0.000132872
0.000409416
-1.72376e-05
-0.000165337
0.0003981
-1.56353e-05
-0.000195628
0.00038737
-1.41182e-05
-0.000225189
0.00038026
-1.28695e-05
-0.000255817
0.000378335
-1.20814e-05
-0.000289908
0.00038312
-1.2011e-05
-0.000331016
0.000396584
-1.30293e-05
-0.000384577
0.000421142
-1.57024e-05
-0.00045885
0.00045939
-2.07879e-05
-0.000566171
0.000513171
-2.86856e-05
-0.000721883
0.00057762
-3.61599e-05
-0.000936869
0.000622781
-2.75563e-05
-0.00119103
0.000544257
3.62369e-05
-0.00140731
0.000138751
0.000202238
-0.00137542
-0.000833598
0.000407059
-0.000850387
-0.0021698
0.000349564
-0.00282555
-1.43133e-05
-2.6946e-05
0.000242488
-1.87061e-05
-6.94009e-05
0.000423816
-2.43449e-05
-0.000110069
0.000461966
-2.39819e-05
-0.000145143
0.000453737
-2.17906e-05
-0.000175286
0.000436488
-1.91999e-05
-0.00020192
0.000421208
-1.66218e-05
-0.000226424
0.000410967
-1.4323e-05
-0.000250363
0.000407573
-1.25113e-05
-0.000275899
0.000413179
-1.13633e-05
-0.000306265
0.000430802
-1.10682e-05
-0.000346802
0.000464827
-1.17554e-05
-0.000405901
0.000520528
-1.29145e-05
-0.000496982
0.000603067
-1.13485e-05
-0.000635739
0.000704715
6.05252e-06
-0.000838634
0.000780561
7.82592e-05
-0.00109843
0.000683269
0.0002689
-0.00136015
0.000171757
0.000598406
-0.00135328
-0.00107093
0.000816021
-0.000823675
-0.00266888
0.000466161
-0.00358785
-2.80772e-05
-3.40111e-05
0.000285281
-2.458e-05
-8.35991e-05
0.000486502
-3.0989e-05
-0.000128048
0.000519253
-2.99274e-05
-0.000163906
0.000501233
-2.64407e-05
-0.000191442
0.000474208
-2.26327e-05
-0.000212765
0.00045117
-1.88585e-05
-0.000229665
0.000434969
-1.53866e-05
-0.000243534
0.00042706
-1.23721e-05
-0.000255692
0.000429502
-9.89843e-06
-0.000267856
0.000445577
-7.89079e-06
-0.000283537
0.000480994
-5.8186e-06
-0.000308237
0.000542151
-1.3499e-06
-0.000353922
0.000637416
1.30698e-05
-0.00043585
0.000754663
6.13693e-05
-0.000587034
0.000850954
0.000197174
-0.00081973
0.000748766
0.000487403
-0.0011024
0.000208908
0.000873914
-0.00112029
-0.0011889
0.000915892
-0.000703503
-0.00291466
0.000280683
-0.00421048
-0.000163562
-6.74022e-05
0.000363476
-3.47237e-05
-0.000123712
0.00055869
-4.38424e-05
-0.000163303
0.000574499
-4.17899e-05
-0.000189741
0.000541953
-3.66184e-05
-0.000208789
0.000505758
-3.042e-05
-0.000222509
0.000475347
-2.41653e-05
-0.000231412
0.000452187
-1.83593e-05
-0.000235108
0.000436926
-1.32597e-05
-0.000233107
0.000431477
-8.91405e-06
-0.000224425
0.000438418
-5.0157e-06
-0.000209118
0.000463796
-6.03198e-07
-0.000187304
0.000512986
8.24224e-06
-0.000166232
0.000597371
3.12287e-05
-0.000155417
0.00070054
9.58811e-05
-0.000197053
0.00080271
0.000254993
-0.0003243
0.000720131
0.000554943
-0.000527734
0.000231175
0.000874302
-0.000644832
-0.00111805
0.000741822
-0.000461456
-0.00293732
0.000106597
-0.00462224
-0.000313632
-4.73353e-05
0.000423849
-5.25624e-05
-0.000134156
0.000667647
-6.07426e-05
-0.00019372
0.000655208
-5.5297e-05
-0.000229347
0.000596844
-4.52088e-05
-0.000247512
0.000540524
-3.59844e-05
-0.000253182
0.000494675
-2.70208e-05
-0.000249245
0.000458875
-1.88918e-05
-0.000236318
0.000431576
-1.18083e-05
-0.000213968
0.000413615
-5.94119e-06
-0.000178984
0.000404594
-9.51415e-07
-0.000128143
0.000410127
3.94196e-06
-5.56785e-05
0.000431001
1.30441e-05
4.21732e-05
0.000478937
3.43893e-05
0.000157291
0.000542531
8.95273e-05
0.000278855
0.000608872
0.000216949
0.000325929
0.000559563
0.000449308
0.000246501
0.000205904
0.000654771
-2.30551e-05
-0.000854887
0.000521867
-4.85064e-05
-0.00279077
5.60193e-05
-0.00469038
-0.000414858
-0.000193866
0.000629864
-6.14971e-05
-0.000229963
0.000723996
-8.09977e-05
-0.00025819
0.000705525
-7.98822e-05
-0.000278547
0.000637941
-6.83016e-05
-0.000274484
0.00055552
-5.26873e-05
-0.000252176
0.000488923
-3.73806e-05
-0.000216769
0.000436719
-2.40368e-05
-0.000169191
0.0003937
-1.31685e-05
-0.000111399
0.000362012
-4.96438e-06
-4.01417e-05
0.00033589
8.5822e-07
4.61844e-05
0.000322446
4.25804e-06
0.000154315
0.000315488
8.42186e-06
0.000290939
0.000327066
1.82007e-05
0.000459472
0.000344274
4.76201e-05
0.00066133
0.000363339
0.000113166
0.000836156
0.000324107
0.000249137
0.000970252
3.97675e-05
0.000341111
0.00081882
-0.000654891
0.000283777
0.000507001
-0.00240499
2.14528e-05
-0.00428764
-0.000469777
-0.000667219
0.00128841
-0.000159345
-0.000628907
0.000709675
-0.000145642
-0.00049038
0.000593463
-0.000117496
-0.000297246
0.000475407
-9.23666e-05
-9.50236e-05
0.000383758
-7.30165e-05
0.000105207
0.000316782
-5.54924e-05
0.000296636
0.000270225
-4.05475e-05
0.000478273
0.000233147
-2.79454e-05
0.00065041
0.000206866
-1.78242e-05
0.000815356
0.000184018
-1.03243e-05
0.000976944
0.000169877
-6.08063e-06
0.00113867
0.000158384
-5.14735e-06
0.00131344
0.000152681
-5.85461e-06
0.00150034
0.000149631
8.26543e-07
0.00172846
0.000126634
7.03454e-06
0.00195952
8.17173e-05
5.93357e-05
0.00212141
-0.000117302
9.9246e-05
0.00208663
-0.00055512
6.42142e-05
0.00141211
-0.00168603
-3.03248e-05
-0.00307569
-0.000511551
0.00127005
-0.000129955
0.00197095
-0.000149527
0.00256113
-0.000152837
0.00304131
-0.000145606
0.00343707
-0.000134776
0.00376981
-0.000122992
0.00405869
-0.000111431
0.00431188
-0.000100736
0.0045392
-8.97456e-05
0.00474352
-8.19988e-05
0.00493225
-7.19494e-05
0.00510858
-6.81714e-05
0.00527628
-5.92198e-05
0.0054422
-6.09437e-05
0.00558103
-4.74126e-05
0.00568603
-5.8395e-05
0.00558771
-3.29703e-05
0.0050746
-8.84993e-05
0.00338629
-0.000105358
-0.000558992
-4.83487e-06
5.08055e-06
-1.26885e-06
-1.55214e-05
1.13005e-05
-1.41519e-06
-2.81326e-05
1.33367e-05
-1.32721e-06
-4.10638e-05
1.3698e-05
-1.24356e-06
-5.378e-05
1.34946e-05
-1.25169e-06
-6.60591e-05
1.30643e-05
-1.3532e-06
-7.76833e-05
1.24237e-05
-1.54994e-06
-8.83575e-05
1.15009e-05
-1.85278e-06
-9.76916e-05