/*--------------------------------*- C++ -*----------------------------------*\
  =========                 |
  \\      /  F ield         | OpenFOAM: The Open Source CFD Toolbox
   \\    /   O peration     | Website:  https://openfoam.org
    \\  /    A nd           | Version:  10
     \\/     M anipulation  |
\*---------------------------------------------------------------------------*/
FoamFile
{
    format      ascii;
    class       volVectorField;
    location    "2.625";
    object      U;
}
// * * * * * * * * * * * * * * * * * * * * * * * * * * * * * * * * * * * * * //

dimensions      [0 1 -1 0 0 0 0];

internalField   nonuniform List<vector> 
475
(
(0.968639 0.016332 0)
(0.983461 0.00460483 0)
(0.941238 0.0331976 0)
(0.974835 -0.00498893 0)
(0.907648 0.0311528 0)
(0.995886 0.010794 0)
(1.01641 0.00998574 0)
(1.02356 0.0140761 0)
(1.04338 0.00424183 0)
(1.05607 0.00108999 0)
(0.999393 0.00243617 0)
(1.01223 -0.00783313 0)
(1.02161 -0.00770281 0)
(1.03873 -0.00895602 0)
(1.05841 -0.0158434 0)
(1.00005 -0.0100914 0)
(1.01152 -0.0197655 0)
(1.02125 -0.021963 0)
(1.03164 -0.0263411 0)
(1.0428 -0.0283422 0)
(0.98126 -0.00989771 0)
(0.967958 -0.0198805 0)
(0.953928 -0.0210375 0)
(0.931799 -0.0235639 0)
(0.902606 -0.0231329 0)
(0.945885 -0.0266429 0)
(0.917172 -0.023748 0)
(0.91866 -0.0256263 0)
(0.952655 -0.0388754 0)
(1.00281 -0.0809079 0)
(1.07162 -0.141116 0)
(1.11667 -0.221197 0)
(1.11025 -0.3211 0)
(1.08435 -0.395229 0)
(1.01572 -0.422108 0)
(0.908297 -0.392446 0)
(0.802377 -0.288557 0)
(0.683689 -0.172174 0)
(0.573806 -0.0996962 0)
(0.514314 -0.0526891 0)
(0.504904 -0.0085212 0)
(0.522386 0.0292882 0)
(0.545432 0.0509418 0)
(0.562276 0.0558714 0)
(0.571175 0.0501092 0)
(0.574771 0.0400343 0)
(0.575776 0.0298301 0)
(0.57583 0.0213553 0)
(0.575679 0.0149739 0)
(0.575572 0.0104011 0)
(0.575547 0.00719821 0)
(0.575582 0.00497398 0)
(0.575644 0.00343245 0)
(0.575714 0.00236402 0)
(0.575778 0.00162358 0)
(0.575835 0.00111098 0)
(0.57588 0.000756847 0)
(0.575917 0.000512925 0)
(0.575943 0.00034548 0)
(0.575964 0.000231063 0)
(0.575978 0.0001533 0)
(0.575987 0.00010065 0)
(0.575996 6.56296e-05 0)
(0.575999 4.19606e-05 0)
(0.576003 2.70438e-05 0)
(0.576006 1.67828e-05 0)
(0.576007 1.115e-05 0)
(0.576009 7.06319e-06 0)
(0.576009 5.6166e-06 0)
(0.57601 4.80503e-06 0)
(1.06609 -0.0166115 0)
(1.07454 -0.0225496 0)
(1.09389 -0.019861 0)
(1.10804 -0.0272976 0)
(1.1213 -0.0717911 0)
(1.14511 -0.141806 0)
(1.14294 -0.208336 0)
(1.09813 -0.276317 0)
(1.0374 -0.326848 0)
(0.933937 -0.32732 0)
(0.795267 -0.268587 0)
(0.688947 -0.150607 0)
(0.61473 -0.0345764 0)
(0.552541 0.00766837 0)
(0.505013 -0.00482896 0)
(0.480137 -0.015369 0)
(0.47992 -0.00636868 0)
(0.494991 0.00982723 0)
(0.514431 0.0212242 0)
(0.531883 0.0251014 0)
(0.545203 0.0236538 0)
(0.554623 0.0197423 0)
(0.561064 0.0153217 0)
(0.56542 0.0113685 0)
(0.568371 0.00820637 0)
(0.570384 0.00582601 0)
(0.571767 0.00409361 0)
(0.572719 0.00285609 0)
(0.573375 0.00198128 0)
(0.573825 0.00136679 0)
(0.574136 0.000937211 0)
(0.574346 0.000638486 0)
(0.574492 0.000431903 0)
(0.574589 0.000289959 0)
(0.574656 0.000192967 0)
(0.574702 0.000127146 0)
(0.574731 8.28295e-05 0)
(0.574754 5.33951e-05 0)
(0.574766 3.36775e-05 0)
(0.574776 2.14601e-05 0)
(0.574783 1.29598e-05 0)
(0.574786 8.53808e-06 0)
(0.57479 5.36939e-06 0)
(0.574792 4.25734e-06 0)
(0.574794 3.87983e-06 0)
(1.06596 -0.0223825 0)
(1.07292 -0.0409098 0)
(1.08046 -0.0558368 0)
(1.08436 -0.0647303 0)
(1.0884 -0.104541 0)
(1.08696 -0.151237 0)
(1.06416 -0.195984 0)
(1.01473 -0.255209 0)
(0.958798 -0.273897 0)
(0.8886 -0.230665 0)
(0.792634 -0.183265 0)
(0.721276 -0.130981 0)
(0.706789 -0.0569356 0)
(0.710543 -0.00170241 0)
(0.690308 0.0142868 0)
(0.645112 0.0119594 0)
(0.599843 0.0124045 0)
(0.570063 0.0176906 0)
(0.554865 0.0219879 0)
(0.549464 0.0223899 0)
(0.549528 0.0197366 0)
(0.551875 0.0158219 0)
(0.554715 0.0119319 0)
(0.557292 0.00866106 0)
(0.559381 0.00614398 0)
(0.560981 0.00429964 0)
(0.562173 0.00298361 0)
(0.563047 0.00205752 0)
(0.563683 0.00141096 0)
(0.564141 0.000962045 0)
(0.564472 0.000651913 0)
(0.564707 0.000438689 0)
(0.564877 0.00029248 0)
(0.564994 0.000193087 0)
(0.565077 0.00012575 0)
(0.565134 8.07022e-05 0)
(0.565172 5.09927e-05 0)
(0.5652 3.14185e-05 0)
(0.565217 1.88873e-05 0)
(0.565229 1.13911e-05 0)
(0.565237 6.10303e-06 0)
(0.565242 3.91483e-06 0)
(0.565246 2.28651e-06 0)
(0.565248 1.79922e-06 0)
(0.565251 2.20305e-06 0)
(1.04847 -0.0296118 0)
(1.04645 -0.0420721 0)
(1.04097 -0.052422 0)
(1.03188 -0.0588818 0)
(1.01387 -0.0771669 0)
(0.99004 -0.105064 0)
(0.942194 -0.136248 0)
(0.862854 -0.163985 0)
(0.776284 -0.174448 0)
(0.676505 -0.150913 0)
(0.563174 -0.101121 0)
(0.472238 -0.0510741 0)
(0.425414 -0.00563885 0)
(0.409635 0.0338734 0)
(0.406976 0.0604869 0)
(0.410024 0.069068 0)
(0.418453 0.0632361 0)
(0.430871 0.0504931 0)
(0.44546 0.0373884 0)
(0.460051 0.0266895 0)
(0.472847 0.0186613 0)
(0.483053 0.0128572 0)
(0.490704 0.00876635 0)
(0.496222 0.00593462 0)
(0.500109 0.00399713 0)
(0.50281 0.00268107 0)
(0.504672 0.00179125 0)
(0.505948 0.00119127 0)
(0.506821 0.000787937 0)
(0.507412 0.000517648 0)
(0.507813 0.00033736 0)
(0.508081 0.00021772 0)
(0.508261 0.000138321 0)
(0.508379 8.65995e-05 0)
(0.508459 5.26019e-05 0)
(0.50851 3.10097e-05 0)
(0.508543 1.76239e-05 0)
(0.508566 8.85996e-06 0)
(0.508578 4.22016e-06 0)
(0.508587 1.57457e-06 0)
(0.508592 -3.32402e-07 0)
(0.508595 -2.96654e-07 0)
(0.508598 -5.19925e-07 0)
(0.508599 -4.05298e-07 0)
(0.508601 5.63776e-07 0)
(0.877165 -0.0244699 0)
(0.842072 -0.030931 0)
(0.802324 -0.0292376 0)
(0.761207 -0.0367712 0)
(0.702385 -0.0481401 0)
(0.639675 -0.0514627 0)
(0.545718 -0.0833414 0)
(0.400147 -0.103275 0)
(0.261961 -0.0590925 0)
(0.16672 -0.00508625 0)
(0.108069 0.0161266 0)
(0.0777844 0.0153977 0)
(0.0712761 0.0122096 0)
(0.0854194 0.0110037 0)
(0.114061 0.00812944 0)
(0.148422 0.00379623 0)
(0.181116 0.000148068 0)
(0.207731 -0.00136706 0)
(0.227665 -0.0013378 0)
(0.242099 -0.00082624 0)
(0.252392 -0.000372726 0)
(0.259643 -8.92628e-05 0)
(0.264691 5.71985e-05 0)
(0.268171 0.000116942 0)
(0.270554 0.00012828 0)
(0.272175 0.000115784 0)
(0.273271 9.37991e-05 0)
(0.274008 7.00339e-05 0)
(0.274499 4.85215e-05 0)
(0.274822 3.08561e-05 0)
(0.275034 1.7544e-05 0)
(0.275169 8.21303e-06 0)
(0.275255 2.14651e-06 0)
(0.275306 -1.35172e-06 0)
(0.275338 -3.42757e-06 0)
(0.275354 -4.08029e-06 0)
(0.275364 -4.27161e-06 0)
(0.275367 -4.0427e-06 0)
(0.275368 -3.27244e-06 0)
(0.275368 -2.96623e-06 0)
(0.275367 -2.28041e-06 0)
(0.275366 -1.51073e-06 0)
(0.275365 -1.3617e-06 0)
(0.275364 -8.48574e-07 0)
(0.275364 -1.44741e-07 0)
(-0.0138358 -0.0167184 0)
(-0.0530358 0.00228254 0)
(-0.135644 0.0393439 0)
(-0.263607 0.0644254 0)
(-0.389955 0.0607327 0)
(-0.474186 0.0412093 0)
(-0.497868 0.0112005 0)
(-0.462713 -0.0218433 0)
(-0.371345 -0.0521094 0)
(-0.236353 -0.0703753 0)
(-0.078156 -0.0728644 0)
(0.0753521 -0.060752 0)
(0.200202 -0.0404509 0)
(0.284806 -0.0192421 0)
(0.330848 -0.00267655 0)
(0.347587 0.0068902 0)
(0.346297 0.0103883 0)
(0.336283 0.0103663 0)
(0.323671 0.00869884 0)
(0.31165 0.00657871 0)
(0.301563 0.00464914 0)
(0.293719 0.00313749 0)
(0.287927 0.00205037 0)
(0.283803 0.00131026 0)
(0.280947 0.000823818 0)
(0.279007 0.000510833 0)
(0.27771 0.000311994 0)
(0.276853 0.000187246 0)
(0.276292 0.000109916 0)
(0.275929 6.24347e-05 0)
(0.275696 3.34491e-05 0)
(0.275549 1.60498e-05 0)
(0.275459 5.93666e-06 0)
(0.275403 2.04263e-07 0)
(0.275372 -2.51738e-06 0)
(0.275354 -3.85553e-06 0)
(0.275345 -4.06078e-06 0)
(0.275341 -3.73711e-06 0)
(0.275339 -3.57105e-06 0)
(0.27534 -2.74246e-06 0)
(0.275341 -2.28908e-06 0)
(0.275343 -1.928e-06 0)
(0.275343 -1.15816e-06 0)
(0.275344 -7.1033e-07 0)
(0.275344 -1.98985e-07 0)
(-0.0237132 0.0937145 0)
(-0.0895167 0.126412 0)
(-0.185554 0.16908 0)
(-0.283898 0.177481 0)
(-0.360186 0.142759 0)
(-0.392582 0.0782774 0)
(-0.383108 -0.0113547 0)
(-0.326349 -0.107599 0)
(-0.225733 -0.19067 0)
(-0.0898994 -0.243782 0)
(0.0645603 -0.253502 0)
(0.2167 -0.222771 0)
(0.347826 -0.165709 0)
(0.443799 -0.10446 0)
(0.50186 -0.0538191 0)
(0.530857 -0.018479 0)
(0.542619 0.00276054 0)
(0.545178 0.0130483 0)
(0.54284 0.0162935 0)
(0.538119 0.0157297 0)
(0.532625 0.0134214 0)
(0.527317 0.0105972 0)
(0.522691 0.00793028 0)
(0.518927 0.00571172 0)
(0.516008 0.00400166 0)
(0.513823 0.00274771 0)
(0.512231 0.00185885 0)
(0.511095 0.00124311 0)
(0.510297 0.000822776 0)
(0.509742 0.000539202 0)
(0.509361 0.000349695 0)
(0.5091 0.000224022 0)
(0.508926 0.000141732 0)
(0.508807 8.77762e-05 0)
(0.50873 5.34026e-05 0)
(0.508679 3.1417e-05 0)
(0.508645 1.73481e-05 0)
(0.508625 9.45198e-06 0)
(0.50861 3.98028e-06 0)
(0.508602 1.27772e-06 0)
(0.508597 1.33802e-07 0)
(0.508594 -6.80504e-07 0)
(0.508591 -7.14432e-07 0)
(0.508591 -1.55232e-07 0)
(0.508589 6.21481e-07 0)
(0.00196496 0.0823832 0)
(-0.0186559 0.13843 0)
(-0.0470356 0.197825 0)
(-0.0705642 0.20758 0)
(-0.0770043 0.160417 0)
(-0.0636028 0.0717687 0)
(-0.0258699 -0.0505733 0)
(0.0374147 -0.183314 0)
(0.127075 -0.303088 0)
(0.231147 -0.381679 0)
(0.332922 -0.399372 0)
(0.422554 -0.358612 0)
(0.502884 -0.27136 0)
(0.567251 -0.168263 0)
(0.603426 -0.0840081 0)
(0.6127 -0.0318393 0)
(0.607513 -0.00416363 0)
(0.598994 0.00916024 0)
(0.592184 0.0146097 0)
(0.587186 0.0157768 0)
(0.583074 0.0146496 0)
(0.579459 0.0124528 0)
(0.576307 0.00996586 0)
(0.573655 0.0076366 0)
(0.57151 0.0056676 0)
(0.569833 0.00410709 0)
(0.56856 0.0029231 0)
(0.567613 0.00205132 0)
(0.56692 0.00142235 0)
(0.566418 0.00097569 0)
(0.566062 0.000662587 0)
(0.565808 0.000445434 0)
(0.565632 0.000296552 0)
(0.565507 0.000195082 0)
(0.565423 0.000126902 0)
(0.565365 8.14169e-05 0)
(0.565324 5.10607e-05 0)
(0.565299 3.18495e-05 0)
(0.565279 1.89124e-05 0)
(0.565268 1.11435e-05 0)
(0.56526 6.39382e-06 0)
(0.565255 3.71234e-06 0)
(0.565251 2.08779e-06 0)
(0.565249 1.96498e-06 0)
(0.565246 2.2578e-06 0)
(0.028088 0.14439 0)
(0.0799476 0.188178 0)
(0.138148 0.247452 0)
(0.199761 0.23736 0)
(0.262576 0.169366 0)
(0.327235 0.0545906 0)
(0.405619 -0.086428 0)
(0.48234 -0.229078 0)
(0.552808 -0.357226 0)
(0.610365 -0.448529 0)
(0.652087 -0.464132 0)
(0.670065 -0.412351 0)
(0.669863 -0.324456 0)
(0.675824 -0.209598 0)
(0.685285 -0.0958299 0)
(0.68073 -0.0175534 0)
(0.661552 0.0186149 0)
(0.637731 0.0289366 0)
(0.617501 0.0287878 0)
(0.603258 0.0255084 0)
(0.593999 0.0215556 0)
(0.588065 0.0176037 0)
(0.584174 0.0139088 0)
(0.581522 0.0106506 0)
(0.579647 0.0079346 0)
(0.578288 0.00577812 0)
(0.577297 0.00413142 0)
(0.576572 0.00291154 0)
(0.576048 0.00202846 0)
(0.575671 0.00140004 0)
(0.575404 0.000958504 0)
(0.575214 0.000651266 0)
(0.575084 0.000439347 0)
(0.574991 0.000294031 0)
(0.574928 0.000195187 0)
(0.574884 0.000128441 0)
(0.574853 8.3362e-05 0)
(0.574834 5.38072e-05 0)
(0.574819 3.38755e-05 0)
(0.57481 2.13576e-05 0)
(0.574804 1.30965e-05 0)
(0.574799 8.50996e-06 0)
(0.574796 5.24806e-06 0)
(0.574795 4.3251e-06 0)
(0.574793 3.92469e-06 0)
(0.114439 -0.0507483 0)
(0.112208 0.0122857 0)
(0.277001 0.0547097 0)
(0.409386 0.0656093 0)
(0.539178 0.0248014 0)
(0.65918 -0.0636923 0)
(0.757957 -0.187219 0)
(0.825643 -0.311497 0)
(0.873199 -0.407597 0)
(0.875599 -0.478083 0)
(0.844989 -0.476737 0)
(0.801232 -0.385443 0)
(0.731797 -0.276487 0)
(0.668575 -0.179748 0)
(0.642085 -0.0865161 0)
(0.638341 -0.00937097 0)
(0.636251 0.0349192 0)
(0.628407 0.0492846 0)
(0.616025 0.0466625 0)
(0.60319 0.037972 0)
(0.592898 0.0289683 0)
(0.58589 0.0215581 0)
(0.581608 0.0159009 0)
(0.579175 0.0116669 0)
(0.577847 0.00850858 0)
(0.577129 0.00615892 0)
(0.576734 0.00442077 0)
(0.576503 0.00314563 0)
(0.576359 0.00221905 0)
(0.57626 0.0015522 0)
(0.576192 0.00107677 0)
(0.576139 0.000740874 0)
(0.576104 0.000505693 0)
(0.576075 0.000342282 0)
(0.576056 0.000229698 0)
(0.576042 0.000152778 0)
(0.576031 0.000100404 0)
(0.576025 6.55596e-05 0)
(0.576019 4.19398e-05 0)
(0.576016 2.69685e-05 0)
(0.576014 1.68e-05 0)
(0.576012 1.11411e-05 0)
(0.576011 7.01873e-06 0)
(0.576011 5.63501e-06 0)
(0.57601 4.82422e-06 0)
)
;

boundaryField
{
    inlet
    {
        type            fixedValue;
        value           uniform (1 0 0);
    }
    outlet
    {
        type            zeroGradient;
    }
    upperWall
    {
        type            noSlip;
    }
    lowerWall
    {
        type            noSlip;
    }
    frontAndBack
    {
        type            empty;
    }
}


// ************************************************************************* //
