/*--------------------------------*- C++ -*----------------------------------*\
  =========                 |
  \\      /  F ield         | OpenFOAM: The Open Source CFD Toolbox
   \\    /   O peration     | Website:  https://openfoam.org
    \\  /    A nd           | Version:  10
     \\/     M anipulation  |
\*---------------------------------------------------------------------------*/
FoamFile
{
    format      ascii;
    class       surfaceScalarField;
    location    "5.45";
    object      phi;
}
// * * * * * * * * * * * * * * * * * * * * * * * * * * * * * * * * * * * * * //

dimensions      [0 3 -1 0 0 0 0];

internalField   nonuniform List<scalar> 
22800
(
-2.2003e-06
2.62265e-06
-4.17738e-07
-7.29665e-06
5.09493e-06
1.42594e-09
-1.32971e-05
5.79987e-06
2.00554e-07
-1.95319e-05
5.93789e-06
2.96923e-07
-2.57395e-05
5.9073e-06
3.00338e-07
-3.17872e-05
5.80467e-06
2.42993e-07
-3.75482e-05
5.62157e-06
1.39426e-07
-4.28561e-05
5.32169e-06
-1.37707e-08
-4.75197e-05
4.85924e-06
-1.95657e-07
-5.12778e-05
4.19418e-06
-4.36114e-07
-5.38297e-05
3.28599e-06
-7.34058e-07
-5.48411e-05
2.10368e-06
-1.09222e-06
-5.39719e-05
6.44926e-07
-1.51413e-06
-5.09055e-05
-1.1089e-06
-1.95753e-06
-4.54537e-05
-3.0463e-06
-2.40555e-06
-3.76079e-05
-5.03957e-06
-2.80621e-06
-2.76846e-05
-6.84961e-06
-3.07369e-06
-1.65296e-05
-8.06823e-06
-3.08678e-06
-5.83584e-06
-7.93675e-06
-2.75698e-06
-4.43983e-06
-1.39601e-06
-4.57795e-06
8.51891e-06
-1.3183e-06
-1.33445e-05
1.48434e-05
-9.81911e-07
-2.33613e-05
1.66077e-05
-7.91008e-07
-3.36353e-05
1.68458e-05
-6.33929e-07
-4.37404e-05
1.65708e-05
-5.58398e-07
-5.34323e-05
1.60328e-05
-5.36265e-07
-6.24877e-05
1.52314e-05
-5.54425e-07
-7.06498e-05
1.40993e-05
-6.15465e-07
-7.76118e-05
1.25486e-05
-7.2728e-07
-8.30075e-05
1.04875e-05
-8.97651e-07
-8.64093e-05
7.82129e-06
-1.13348e-06
-8.73679e-05
4.50187e-06
-1.43954e-06
-8.54509e-05
5.48862e-07
-1.82096e-06
-8.02173e-05
-4.09445e-06
-2.24803e-06
-7.1416e-05
-9.15673e-06
-2.69091e-06
-5.90724e-05
-1.42928e-05
-3.09039e-06
-4.36674e-05
-1.89205e-05
-3.33409e-06
-2.64331e-05
-2.20272e-05
-3.27528e-06
-9.82034e-06
-2.17292e-05
-2.82035e-06
-1.31062e-05
-1.15399e-06
-5.37142e-06
1.56646e-05
-1.77425e-06
-1.54492e-05
2.64323e-05
-1.51114e-06
-2.68682e-05
2.93468e-05
-1.32011e-06
-3.85229e-05
2.96293e-05
-1.12876e-06
-4.99533e-05
2.90125e-05
-1.01124e-06
-6.08986e-05
2.79205e-05
-9.4251e-07
-7.11223e-05
2.63667e-05
-9.11588e-07
-8.03527e-05
2.4255e-05
-9.2537e-07
-8.82632e-05
2.14535e-05
-9.94437e-07
-9.4462e-05
1.78168e-05
-1.13057e-06
-9.84993e-05
1.32037e-05
-1.34512e-06
-9.98591e-05
7.50837e-06
-1.64668e-06
-9.79815e-05
7.1186e-07
-2.04062e-06
-9.23534e-05
-7.22183e-06
-2.50071e-06
-8.26163e-05
-1.58933e-05
-3.00055e-06
-6.86967e-05
-2.47439e-05
-3.46849e-06
-5.10539e-05
-3.27964e-05
-3.7669e-06
-3.10608e-05
-3.83083e-05
-3.71198e-06
-1.15937e-05
-3.80031e-05
-3.19326e-06
-2.34462e-05
-1.25372e-06
-5.60755e-06
2.34023e-05
-2.13022e-06
-1.62192e-05
3.89837e-05
-1.93974e-06
-2.82328e-05
4.31158e-05
-1.75544e-06
-4.0504e-05
4.34457e-05
-1.54524e-06
-5.25775e-05
4.2489e-05
-1.40305e-06
-6.42086e-05
4.08588e-05
-1.30717e-06
-7.51786e-05
3.85849e-05
-1.24823e-06
-8.52319e-05
3.55421e-05
-1.23381e-06
-9.40481e-05
3.15509e-05
-1.28125e-06
-0.000101225
2.64021e-05
-1.40825e-06
-0.000106271
1.98797e-05
-1.6302e-06
-0.000108602
1.18017e-05
-1.96256e-06
-0.000107567
2.09955e-06
-2.42253e-06
-0.000102442
-9.36063e-06
-2.98621e-06
-9.26261e-05
-2.20964e-05
-3.61253e-06
-7.78238e-05
-3.5326e-05
-4.2202e-06
-5.8368e-05
-4.76157e-05
-4.63656e-06
-3.57601e-05
-5.62899e-05
-4.62626e-06
-1.33848e-05
-5.63381e-05
-4.04035e-06
-3.5134e-05
-1.697e-06
-5.70748e-06
3.15462e-05
-2.43638e-06
-1.66949e-05
5.2281e-05
-2.30984e-06
-2.91682e-05
5.77233e-05
-2.13417e-06
-4.19525e-05
5.81431e-05
-1.91318e-06
-5.46067e-05
5.69027e-05
-1.75938e-06
-6.69172e-05
5.48227e-05
-1.65337e-06
-7.87003e-05
5.19566e-05
-1.58854e-06
-8.97333e-05
4.81517e-05
-1.57655e-06
-9.97214e-05
4.3175e-05
-1.63603e-06
-0.000108265
3.67384e-05
-1.79252e-06
-0.000114836
2.85216e-05
-2.0706e-06
-0.000118757
1.82157e-05
-2.49339e-06
-0.000119191
5.61094e-06
-3.07791e-06
-0.0001152
-9.51203e-06
-3.83915e-06
-0.000105783
-2.68077e-05
-4.70606e-06
-9.02522e-05
-4.52752e-05
-5.58121e-06
-6.86491e-05
-6.29808e-05
-6.23795e-06
-4.25315e-05
-7.60624e-05
-6.34506e-06
-1.60527e-05
-7.71557e-05
-5.66112e-06
-4.85445e-05
-2.6422e-06
-5.79968e-06
4.00983e-05
-2.75244e-06
-1.7189e-05
6.63599e-05
-2.68957e-06
-3.01692e-05
7.32282e-05
-2.52478e-06
-4.35257e-05
7.37973e-05
-2.29771e-06
-5.68361e-05
7.23528e-05
-2.13964e-06
-6.99298e-05
6.99501e-05
-2.03369e-06
-8.26751e-05
6.66784e-05
-1.97654e-06
-9.49032e-05
6.23643e-05
-1.98456e-06
-0.000106367
5.67207e-05
-2.08212e-06
-0.000116696
4.93682e-05
-2.30055e-06
-0.000125346
3.98487e-05
-2.67735e-06
-0.000131546
2.76662e-05
-3.2506e-06
-0.000134263
1.23784e-05
-4.05027e-06
-0.000132228
-6.40506e-06
-5.14219e-06
-0.000123875
-2.8747e-05
-6.41293e-06
-0.000107874
-5.35189e-05
-7.75727e-06
-8.36877e-05
-7.82993e-05
-8.86829e-06
-5.2747e-05
-9.77508e-05
-9.25237e-06
-2.02683e-05
-0.000101175
-8.45923e-06
-6.44619e-05
-4.35091e-06
-5.90783e-06
4.91286e-05
-3.12246e-06
-1.77635e-05
8.13493e-05
-3.13377e-06
-3.13221e-05
8.9769e-05
-2.98222e-06
-4.53171e-05
9.0541e-05
-2.74869e-06
-5.93491e-05
8.89709e-05
-2.58611e-06
-7.33037e-05
8.63861e-05
-2.48138e-06
-8.71217e-05
8.29322e-05
-2.43587e-06
-0.000100716
7.84307e-05
-2.47211e-06
-0.000113923
7.25509e-05
-2.62289e-06
-0.000126446
6.48219e-05
-2.93127e-06
-0.000137771
5.46259e-05
-3.4517e-06
-0.000147072
4.12132e-05
-4.24636e-06
-0.000153099
2.37813e-05
-5.37603e-06
-0.000154281
1.76484e-06
-6.98751e-06
-0.000148173
-2.59408e-05
-8.91386e-06
-0.00013249
-5.81207e-05
-1.10815e-05
-0.000105593
-9.21377e-05
-1.30586e-05
-6.83102e-05
-0.000120952
-1.40821e-05
-2.71342e-05
-0.000129091
-1.32597e-05
-8.41546e-05
-7.44158e-06
-6.0329e-06
5.87385e-05
-3.57699e-06
-1.84228e-05
9.74205e-05
-3.68129e-06
-3.2617e-05
0.000107507
-3.54399e-06
-4.72814e-05
0.000108503
-3.29776e-06
-6.20442e-05
0.000106856
-3.12272e-06
-7.68621e-05
0.000104216
-3.01158e-06
-9.17717e-05
0.000100814
-2.97248e-06
-0.000106802
9.64975e-05
-3.03631e-06
-0.000121923
9.09195e-05
-3.24726e-06
-0.000136977
8.35414e-05
-3.66585e-06
-0.000151572
7.35943e-05
-4.37358e-06
-0.000164935
6.00508e-05
-5.47422e-06
-0.000175705
4.16457e-05
-7.09425e-06
-0.000181652
1.70553e-05
-9.34371e-06
-0.000179905
-1.52498e-05
-1.24384e-05
-0.000166384
-5.5575e-05
-1.6066e-05
-0.000137524
-0.000101294
-1.97042e-05
-9.25259e-05
-0.000143763
-2.2186e-05
-3.89287e-05
-0.000160987
-2.1702e-05
-0.000109694
-1.33893e-05
-6.18572e-06
6.90715e-05
-4.1473e-06
-1.91856e-05
0.000114792
-4.37149e-06
-3.40537e-05
0.000126622
-4.2469e-06
-4.93695e-05
0.000127793
-3.97401e-06
-6.47944e-05
0.00012605
-3.76871e-06
-8.03711e-05
0.000123425
-3.63245e-06
-9.62554e-05
0.000120281
-3.58291e-06
-0.00011263
0.000116534
-3.66192e-06
-0.000129655
0.000111873
-3.92867e-06
-0.000147399
0.000105754
-4.46771e-06
-0.000165718
9.73132e-05
-5.40056e-06
-0.000184048
8.52785e-05
-6.89748e-06
-0.000201097
6.78749e-05
-9.17974e-06
-0.000214388
4.28394e-05
-1.2493e-05
-0.000220238
7.94381e-06
-1.73443e-05
-0.000212463
-3.99152e-05
-2.34344e-05
-0.000184354
-9.91959e-05
-3.02082e-05
-0.000131484
-0.000160687
-3.59456e-05
-6.05977e-05
-0.000194732
-3.71412e-05
-0.000144291
-2.60008e-05
-6.40643e-06
8.03537e-05
-4.87578e-06
-2.01243e-05
0.000133766
-5.25579e-06
-3.56946e-05
0.00014733
-5.13729e-06
-5.1591e-05
0.000148502
-4.81223e-06
-6.75154e-05
0.000146519
-4.54471e-06
-8.36115e-05
0.00014387
-4.34891e-06
-0.000100174
0.000141099
-4.25552e-06
-0.000117567
0.000138247
-4.3199e-06
-0.000136198
0.000135124
-4.61969e-06
-0.000156461
0.000131286
-5.26997e-06
-0.000178626
0.000125926
-6.44701e-06
-0.000202615
0.000117687
-8.41954e-06
-0.000227602
0.000104436
-1.15742e-05
-0.000251338
8.30048e-05
-1.64298e-05
-0.000268968
4.91697e-05
-2.35953e-05
-0.000273771
-1.22411e-06
-3.38882e-05
-0.000253259
-7.33707e-05
-4.6337e-05
-0.000196323
-0.000158613
-5.90106e-05
-0.000102926
-0.000222267
-6.58619e-05
-0.000193598
-5.36188e-05
-6.79095e-06
9.29732e-05
-5.82857e-06
-2.14116e-05
0.000154798
-6.41196e-06
-3.77198e-05
0.00016992
-6.2825e-06
-5.40718e-05
0.000170715
-5.86136e-06
-7.02272e-05
0.000168152
-5.47767e-06
-8.64469e-05
0.000165254
-5.16503e-06
-0.000103172
0.000162795
-4.97062e-06
-0.000120958
0.000160998
-4.96477e-06
-0.000140479
0.000159891
-5.24529e-06
-0.000162531
0.0001593
-5.96181e-06
-0.000187969
0.000158718
-7.35483e-06
-0.000217521
0.000157054
-9.81503e-06
-0.000251383
0.00015226
-1.39609e-05
-0.00028842
0.000140731
-2.06897e-05
-0.000324839
0.000116703
-3.11144e-05
-0.000351266
7.19552e-05
-4.67519e-05
-0.000353644
-2.23093e-06
-6.87617e-05
-0.000305357
-0.000113487
-9.34129e-05
-0.000186621
-0.000227869
-0.000113134
-0.00027064
-0.000109579
-7.5383e-06
0.000107629
-7.11745e-06
-2.33919e-05
0.000178617
-7.96486e-06
-4.05015e-05
0.000194822
-7.79216e-06
-5.71282e-05
0.000194541
-7.19955e-06
-7.31275e-05
0.000190761
-6.60986e-06
-8.89062e-05
0.00018712
-6.08734e-06
-0.000105047
0.000184638
-5.70219e-06
-0.000122263
0.000183751
-5.53712e-06
-0.000141461
0.000184796
-5.70738e-06
-0.000163818
0.000188051
-6.39353e-06
-0.000190858
0.000193656
-7.89872e-06
-0.000224436
0.000201374
-1.07414e-05
-0.000266511
0.000210123
-1.5789e-05
-0.000318411
0.000216992
-2.43609e-05
-0.00037944
0.000215832
-3.80995e-05
-0.000443385
0.00019452
-5.86202e-05
-0.000489511
0.000131117
-8.72224e-05
-0.000475559
-6.64716e-06
-0.000120791
-0.00033377
-0.000219504
-0.000150155
-0.000429274
-0.000175136
-9.04639e-06
0.00012561
-8.93428e-06
-2.67072e-05
0.000206359
-1.00818e-05
-4.47218e-05
0.000222618
-9.78094e-06
-6.1362e-05
0.000220066
-8.88421e-06
-7.66793e-05
0.000214037
-7.95876e-06
-9.12768e-05
0.00020882
-7.10229e-06
-0.000105868
0.000205633
-6.40329e-06
-0.000121231
0.000205063
-5.94989e-06
-0.000138357
0.00020779
-5.86793e-06
-0.000158638
0.000214679
-6.34761e-06
-0.000184096
0.000226829
-7.71449e-06
-0.000217651
0.000245454
-1.05254e-05
-0.000263447
0.000271602
-1.56823e-05
-0.000326867
0.000304731
-2.43197e-05
-0.000414047
0.000340021
-3.70093e-05
-0.000526106
0.000358659
-5.20799e-05
-0.000646215
0.000314532
-6.33063e-05
-0.000697637
0.000100628
-5.58539e-05
-0.000545321
-0.000328444
-4.33755e-05
-0.000831083
-0.000143511
-1.2213e-05
0.000149575
-1.17523e-05
-3.26106e-05
0.000240196
-1.34394e-05
-5.15181e-05
0.000254518
-1.29929e-05
-6.76439e-05
0.000247761
-1.15698e-05
-8.15685e-05
0.000237935
-9.97296e-06
-9.41665e-05
0.000229853
-8.43499e-06
-0.000106147
0.000224733
-7.11928e-06
-0.000118212
0.000223275
-6.14632e-06
-0.000131222
0.000226417
-5.61716e-06
-0.000146415
0.000235553
-5.68007e-06
-0.00016585
0.000252862
-6.59881e-06
-0.000192904
0.00028126
-8.7517e-06
-0.000233617
0.000324765
-1.24499e-05
-0.000297715
0.000385491
-1.66614e-05
-0.000402177
0.000459859
-1.53761e-05
-0.000564504
0.0005133
7.68564e-06
-0.000788873
0.000459393
7.95088e-05
-0.000957462
5.92588e-05
0.000209958
-0.00077842
-0.000791234
0.000283749
-0.00160364
-5.86483e-06
-1.75999e-05
0.000183059
-1.58842e-05
-4.19091e-05
0.000281722
-1.72162e-05
-6.19912e-05
0.000290738
-1.61376e-05
-7.77535e-05
0.000277249
-1.37259e-05
-8.98112e-05
0.000261326
-1.13332e-05
-9.93906e-05
0.000248524
-9.09163e-06
-0.000107396
0.000239875
-7.13625e-06
-0.000114412
0.000235841
-5.55137e-06
-0.000120875
0.000237297
-4.41697e-06
-0.000127262
0.000245766
-3.8255e-06
-0.000134831
0.0002642
-3.76951e-06
-0.000145985
0.000296403
-3.98934e-06
-0.000167824
0.000349692
-3.08741e-06
-0.000214492
0.000427058
5.10091e-06
-0.000324401
0.000529865
3.99037e-05
-0.000550817
0.000598731
0.000140985
-0.000927912
0.000491176
0.000345311
-0.00120577
-0.000240631
0.000577746
-0.000955087
-0.00159357
0.00055165
-0.00254523
-1.34949e-05
-3.82965e-05
0.000245352
-2.39961e-05
-6.56579e-05
0.000336409
-2.73263e-05
-8.28877e-05
0.000333018
-2.50501e-05
-9.28345e-05
0.00030818
-2.09835e-05
-9.94891e-05
0.000284325
-1.63449e-05
-0.000104343
0.000265337
-1.19598e-05
-0.000107774
0.000251463
-8.15714e-06
-0.000109411
0.000242566
-5.08762e-06
-0.000108726
0.000239379
-2.76728e-06
-0.000104614
0.000242789
-1.13565e-06
-9.67183e-05
0.000256252
5.25788e-08
-8.52493e-05
0.000283042
1.89216e-06
-7.69981e-05
0.000333318
8.12236e-06
-8.93956e-05
0.000407868
3.15881e-05
-0.000184031
0.000521509
0.000102991
-0.00044468
0.000584271
0.000275109
-0.000925226
0.000410618
0.000561104
-0.00125199
-0.000668686
0.00075482
-0.00100775
-0.00232238
0.000484572
-0.0033478
-0.000205177
-3.21021e-05
0.000316878
-3.94243e-05
-7.67271e-05
0.000418223
-3.71883e-05
-0.00010206
0.000390465
-3.21139e-05
-0.000116293
0.000345655
-2.32429e-05
-0.000120821
0.000305078
-1.62246e-05
-0.000119357
0.000273747
-9.87337e-06
-0.000113991
0.00025063
-4.53311e-06
-0.000105174
0.000234087
-3.38035e-07
-9.26204e-05
0.00022385
2.9757e-06
-7.38243e-05
0.000218836
5.15699e-06
-4.63786e-05
0.000222323
6.48326e-06
-7.12011e-06
0.000234753
9.03121e-06
4.28189e-05
0.000265998
1.73806e-05
8.82414e-05
0.000315092
4.73531e-05
8.15438e-05
0.000399025
0.000129181
-9.47243e-05
0.000449914
0.000310625
-0.000509147
0.000242206
0.000582834
-0.000922592
-0.000923226
0.000667985
-0.000902173
-0.00262297
0.000280168
-0.00383667
-0.000413302
-0.000178963
0.00054608
-5.02381e-05
-0.000181335
0.000480444
-5.98489e-05
-0.000161555
0.000425499
-5.48146e-05
-0.000140516
0.000367323
-4.27069e-05
-0.000112772
0.000305018
-2.76845e-05
-8.32327e-05
0.000258473
-1.42646e-05
-5.36987e-05
0.000224849
-3.75351e-06
-2.30898e-05
0.000199454
4.02468e-06
9.43499e-06
0.00018196
9.36458e-06
4.69672e-05
0.00016884
1.24638e-05
9.28805e-05
0.000163391
1.30185e-05
0.00015373
0.00016124
1.26632e-05
0.000231675
0.000172101
1.59518e-05
0.000329206
0.000185911
3.1651e-05
0.000423329
0.000217768
8.71344e-05
0.000447995
0.000207752
0.000217496
0.000290573
1.28165e-05
0.000386811
-0.000190402
-0.000902574
0.000460324
-0.000511463
-0.00244178
0.000139868
-0.00377377
-0.000574366
-0.000370734
0.00108007
-0.000163257
-0.000263244
0.000486748
-0.000113795
-0.000113532
0.000357315
-8.15282e-05
4.79147e-05
0.000256357
-5.04806e-05
0.000198908
0.000183587
-2.95619e-05
0.000334535
0.000136129
-1.32829e-05
0.000453173
0.000106942
-7.317e-07
0.000556261
8.67923e-05
9.57327e-06
0.000646477
7.45926e-05
1.71527e-05
0.000728926
6.49948e-05
2.13966e-05
0.000807887
6.18754e-05
2.25542e-05
0.000891554
5.80609e-05
1.95123e-05
0.000986809
6.17383e-05
1.51072e-05
0.00110278
5.82833e-05
1.16598e-05
0.00125166
5.17984e-05
1.70886e-05
0.00138038
5.23462e-06
7.37974e-05
0.00142749
-0.000156416
0.00012212
0.00103419
-0.00069443
0.000185162
0.000263252
-0.00171006
3.92201e-05
-0.00278107
-0.000729448
0.00122736
-0.000147291
0.00187011
-0.000156004
0.00237959
-0.00015216
0.00277186
-0.000135913
0.00307219
-0.000116748
0.00330855
-0.000100227
0.00349997
-8.44724e-05
0.00365759
-7.08277e-05
0.00379081
-5.86357e-05
0.00390345
-4.76451e-05
0.00400441
-3.90852e-05
0.00409465
-3.21724e-05
0.0041818
-2.54171e-05
0.00426408
-2.39933e-05
0.00432991
-1.40301e-05
0.004349
-1.38552e-05
0.00418476
7.82613e-06
0.00351595
-2.56226e-05
0.00190234
-9.64558e-05
-0.000878725
-4.0067e-06
4.37335e-06
-7.84386e-07
-1.2865e-05
9.3708e-06
-5.11114e-07
-2.3166e-05
1.08238e-05
-3.22242e-07
-3.36316e-05
1.09664e-05
-2.03842e-07
-4.38326e-05
1.06875e-05
-1.86218e-07
-5.35633e-05
1.0219e-05
-2.45274e-07
-6.26229e-05
9.56701e-06
-3.68027e-07
-7.07677e-05
8.68586e-06
-5.54778e-07
-7.76756e-05
7.52308e-06
-8.10873e-07
-8.29862e-05
6.01721e-06
-1.14269e-06
-8.62814e-05
4.11581e-06
-1.55465e-06
-8.71106e-05
1.78313e-06
-2.04622e-06
-8.50287e-05
-9.85932e-07
-2.61007e-06
-7.96382e-05
-4.13266e-06
-3.2154e-06
-7.06987e-05
-7.52371e-06
-3.82127e-06
-5.82254e-05
-1.09207e-05
-4.35885e-06
-4.26676e-05
-1.3907e-05
-4.72457e-06
-2.52595e-05
-1.5707e-05
-4.78787e-06
-8.83445e-06
-1.47464e-05
-4.43566e-06
-7.41347e-06
-2.81698e-06
-9.2525e-06
1.4084e-05
-1.77645e-06
-2.58135e-05
2.66663e-05
-1.71638e-06
-4.44792e-05
3.0214e-05
-1.51553e-06
-6.32191e-05
3.03875e-05
-1.31508e-06
-8.12613e-05
2.93809e-05
-1.20959e-06
-9.81694e-05
2.77743e-05
-1.18346e-06
-0.000113547
2.56173e-05
-1.22726e-06
-0.00012696
2.28297e-05
-1.34617e-06
-0.000137916
1.93029e-05
-1.55071e-06
-0.000145865
1.49203e-05
-1.85252e-06
-0.000150193
9.57073e-06
-2.26017e-06
-0.000150291
3.21766e-06
-2.77558e-06
-0.000145559
-4.13789e-06
-3.40139e-06
-0.000135471
-1.2381e-05
-4.08762e-06
-0.000119762
-2.11373e-05
-4.7859e-06
-9.85513e-05
-2.98142e-05
-5.40797e-06
-7.2589e-05
-3.7388e-05
-5.81536e-06
-4.37839e-05
-4.19458e-05
-5.8416e-06
-1.63608e-05
-3.96559e-05
-5.3339e-06
-2.17706e-05
-3.15764e-06
-1.12526e-05
2.58923e-05
-2.32998e-06
-3.08641e-05
4.71766e-05
-2.40989e-06
-5.27584e-05
5.29997e-05
-2.21156e-06
-7.46167e-05
5.30841e-05
-1.96711e-06
-9.55763e-05
5.11386e-05
-1.8094e-06
-0.00011515
4.81336e-05
-1.72819e-06
-0.000132898
4.41711e-05
-1.71757e-06
-0.000148347
3.91411e-05
-1.78735e-06
-0.000160967
3.28814e-05
-1.95325e-06
-0.000170159
2.52146e-05
-2.23265e-06
-0.000175272
1.59795e-05
-2.64062e-06
-0.000175597
5.08259e-06
-3.18688e-06
-0.00017038
-7.52929e-06
-3.86625e-06
-0.000159006
-2.16126e-05
-4.64335e-06
-0.000141065
-3.66163e-05
-5.46196e-06
-0.000116568
-5.15627e-05
-6.21708e-06
-8.626e-05
-6.47266e-05
-6.7366e-06
-5.22938e-05
-7.28154e-05
-6.80844e-06
-1.96713e-05
-6.9233e-05
-6.23874e-06
-3.90246e-05
-3.67099e-06
-1.20238e-05
3.85907e-05
-2.80483e-06
-3.30161e-05
6.92501e-05
-3.0209e-06
-5.64021e-05
7.74643e-05
-2.83406e-06
-7.97405e-05
7.74395e-05
-2.56211e-06
-0.00010216
7.45249e-05
-2.36969e-06
-0.000123188
7.01065e-05
-2.25177e-06
-0.000142402
6.43431e-05
-2.2065e-06
-0.00015934
5.70943e-05
-2.2489e-06
-0.000173473
4.81347e-05
-2.40145e-06
-0.000184184
3.72057e-05
-2.68903e-06
-0.000190753
2.40535e-05
-3.13481e-06
-0.000192377
8.50198e-06
-3.75837e-06
-0.000188143
-9.60867e-06
-4.57686e-06
-0.000177123
-3.00765e-05
-5.54209e-06
-0.00015859
-5.21677e-05
-6.59485e-06
-0.000132233
-7.45331e-05
-7.60666e-06
-9.86304e-05
-9.46081e-05
-8.3573e-06
-6.01418e-05
-0.000107368
-8.56221e-06
-2.26628e-05
-0.000102807
-7.94513e-06
-5.86011e-05
-4.78334e-06
-1.25245e-05
5.19321e-05
-3.25329e-06
-3.45747e-05
9.25952e-05
-3.60481e-06
-5.91675e-05
0.000103355
-3.4325e-06
-8.37628e-05
0.000103264
-3.14224e-06
-0.000107501
9.94329e-05
-2.92916e-06
-0.00012995
9.3696e-05
-2.79357e-06
-0.000150733
8.62758e-05
-2.73841e-06
-0.00016943
7.69998e-05
-2.78501e-06
-0.000185537
6.55694e-05
-2.96374e-06
-0.000198427
5.16142e-05
-3.3105e-06
-0.000207317
3.47344e-05
-3.86207e-06
-0.000211234
1.45794e-05
-4.65316e-06
-0.000209043
-9.1704e-06
-5.7075e-06
-0.000199394
-3.65595e-05
-7.00546e-06
-0.000181019
-6.6775e-05
-8.47394e-06
-0.000153023
-9.81552e-05
-9.95514e-06
-0.000115558
-0.000127161
-1.11495e-05
-7.1133e-05
-0.000146503
-1.16353e-05
-2.69709e-05
-0.000141659
-1.09715e-05
-8.13992e-05
-6.81501e-06
-1.30736e-05
6.59909e-05
-3.73759e-06
-3.62979e-05
0.000117367
-4.23679e-06
-6.22515e-05
0.000130866
-4.08166e-06
-8.82777e-05
0.000130769
-3.77641e-06
-0.000113536
0.0001261
-3.54873e-06
-0.000137654
0.000119186
-3.40514e-06
-0.000160326
0.000110326
-3.35472e-06
-0.000181206
9.93219e-05
-3.42685e-06
-0.000199849
8.57923e-05
-3.66242e-06
-0.000215651
6.9228e-05
-4.11177e-06
-0.000227783
4.90203e-05
-4.83168e-06
-0.000235112
2.45395e-05
-5.88156e-06
-0.000236218
-4.80046e-06
-7.31414e-06
-0.000229166
-3.96093e-05
-9.14529e-06
-0.000211882
-7.91764e-05
-1.12954e-05
-0.000182493
-0.000121724
-1.35773e-05
-0.000140287
-0.000162659
-1.55761e-05
-8.76692e-05
-0.00019174
-1.66342e-05
-3.37515e-05
-0.000188067
-1.5969e-05
-0.000109287
-1.02146e-05
-1.37479e-05
8.09273e-05
-4.31101e-06
-3.8375e-05
0.000143846
-4.98553e-06
-6.59345e-05
0.000160292
-4.84934e-06
-9.36256e-05
0.000160236
-4.52487e-06
-0.000120634
0.0001548
-4.27798e-06
-0.000146669
0.000146862
-4.12343e-06
-0.000171528
0.000136829
-4.07862e-06
-0.000194983
0.000124488
-4.18366e-06
-0.000216702
0.000109382
-4.49394e-06
-0.00023617
9.08456e-05
-5.08041e-06
-0.000252578
6.80059e-05
-6.02959e-06
-0.000264669
3.9826e-05
-7.44164e-06
-0.000270752
5.32325e-06
-9.41709e-06
-0.00026818
-3.71079e-05
-1.20608e-05
-0.000253743
-8.7235e-05
-1.52919e-05
-0.000224009
-0.000143618
-1.89216e-05
-0.000176585
-0.000200765
-2.23771e-05
-0.000113053
-0.000244738
-2.46155e-05
-4.48952e-05
-0.000245351
-2.4133e-05
-0.000145749
-1.58751e-05
-1.45661e-05
9.6935e-05
-5.01866e-06
-4.08526e-05
0.000172361
-5.91032e-06
-7.02641e-05
0.000191952
-5.79185e-06
-9.98213e-05
0.00019193
-5.43458e-06
-0.000128744
0.000185753
-5.1516e-06
-0.000156851
0.000176926
-4.96896e-06
-0.000184084
0.000166005
-4.91533e-06
-0.000210387
0.0001528
-5.04484e-06
-0.000235625
0.000136805
-5.4321e-06
-0.000259476
0.000117207
-6.17664e-06
-0.000281282
9.28464e-05
-7.40825e-06
-0.000299834
6.2188e-05
-9.28348e-06
-0.000313053
2.34179e-05
-1.19708e-05
-0.000317886
-2.58232e-05
-1.57953e-05
-0.00030953
-8.72973e-05
-2.07318e-05
-0.000282221
-0.000160388
-2.66047e-05
-0.000230519
-0.000239478
-3.26931e-05
-0.00015355
-0.000306523
-3.73701e-05
-6.46121e-05
-0.000318319
-3.76715e-05
-0.000198139
-2.56114e-05
-1.55567e-05
0.000114256
-5.91131e-06
-4.37854e-05
0.000203296
-7.07745e-06
-7.52802e-05
0.00022617
-6.97019e-06
-0.000106843
0.000226073
-6.55378e-06
-0.000137741
0.000219083
-6.20169e-06
-0.000167929
0.000209436
-5.95542e-06
-0.00019754
0.000197892
-5.85854e-06
-0.000226762
0.000184343
-5.98261e-06
-0.000255754
0.000168295
-6.42634e-06
-0.000284535
0.000148847
-7.32698e-06
-0.000312801
0.000124588
-8.87606e-06
-0.000339626
9.34494e-05
-1.13336e-05
-0.000362942
5.26062e-05
-1.50525e-05
-0.000379522
-1.28724e-06
-2.04489e-05
-0.000382778
-7.35146e-05
-2.78709e-05
-0.000363991
-0.000165261
-3.7348e-05
-0.000312702
-0.000272859
-4.81169e-05
-0.000222241
-0.000375156
-5.77739e-05
-0.000103166
-0.00041385
-6.06849e-05
-0.000283963
-4.33427e-05
-1.679e-05
0.000133228
-7.05817e-06
-4.73029e-05
0.000237128
-8.57483e-06
-8.11063e-05
0.000263299
-8.4631e-06
-0.000114742
0.000262839
-7.94253e-06
-0.000147539
0.000254801
-7.46541e-06
-0.000179623
0.000244265
-7.0944e-06
-0.000211365
0.000232271
-6.89211e-06
-0.000243264
0.000218872
-6.95037e-06
-0.000275884
0.00020369
-7.39527e-06
-0.00030977
0.000185871
-8.40846e-06
-0.00034527
0.0001639
-1.02587e-05
-0.000382204
0.000135305
-1.3341e-05
-0.000419264
9.629e-05
-1.81981e-05
-0.000453025
4.15088e-05
-2.54649e-05
-0.000477024
-3.66434e-05
-3.64676e-05
-0.00047913
-0.000145514
-5.15291e-05
-0.000441834
-0.000286276
-7.02152e-05
-0.000346398
-0.000440159
-8.9444e-05
-0.000186202
-0.00054045
-9.94571e-05
-0.00044695
-7.68341e-05
-1.84135e-05
0.000154377
-8.56341e-06
-5.16743e-05
0.000274506
-1.05298e-05
-8.80263e-05
0.000303751
-1.03822e-05
-0.000123719
0.000302354
-9.68416e-06
-0.000158175
0.000292773
-8.99271e-06
-0.000191731
0.000281055
-8.39974e-06
-0.00022503
0.000268592
-7.99166e-06
-0.00025893
0.000255689
-7.88127e-06
-0.00029449
0.000242225
-8.22088e-06
-0.000332959
0.000227614
-9.23562e-06
-0.000375692
0.000210554
-1.12757e-05
-0.00042388
0.000188572
-1.48939e-05
-0.000477962
0.00015735
-2.09389e-05
-0.000536316
0.000109832
-3.0659e-05
-0.000594568
3.60452e-05
-4.55515e-05
-0.000639704
-7.93762e-05
-6.77536e-05
-0.000646317
-0.000250891
-9.75344e-05
-0.000570766
-0.000478444
-0.000130679
-0.000357193
-0.000714726
-0.000152431
-0.000782996
-0.000130726
-2.07134e-05
0.000178565
-1.05925e-05
-5.7401e-05
0.000316367
-1.31381e-05
-9.65799e-05
0.000348037
-1.28995e-05
-0.000134218
0.000344699
-1.19063e-05
-0.000169901
0.000332706
-1.08596e-05
-0.000204225
0.000319186
-9.89466e-06
-0.00023813
0.000305923
-9.12876e-06
-0.000272833
0.000293548
-8.69289e-06
-0.000309905
0.000282347
-8.757e-06
-0.000351401
0.000272291
-9.57464e-06
-0.000399993
0.000262803
-1.15563e-05
-0.000459001
0.000252227
-1.53878e-05
-0.000532139
0.000236895
-2.21954e-05
-0.000622624
0.000209598
-3.36427e-05
-0.00073072
0.000157755
-5.17125e-05
-0.000849438
5.90543e-05
-7.83327e-05
-0.000942155
-0.00013246
-0.000112936
-0.000913855
-0.000481442
-0.000146093
-0.000622891
-0.000991605
-0.00016424
-0.00141213
-0.000168891
-2.42018e-05
0.000207241
-1.34085e-05
-6.53426e-05
0.000364092
-1.66653e-05
-0.000107701
0.000396828
-1.62128e-05
-0.00014707
0.000389916
-1.47321e-05
-0.000183316
0.000374124
-1.31311e-05
-0.000217385
0.000357745
-1.15926e-05
-0.000250527
0.000342924
-1.02622e-05
-0.000284251
0.000330603
-9.28067e-06
-0.000320501
0.000321548
-8.81951e-06
-0.000362016
0.000316579
-9.12072e-06
-0.000412787
0.000316434
-1.05744e-05
-0.000478639
0.000321387
-1.38337e-05
-0.000567875
0.000330379
-1.99301e-05
-0.000691307
0.000338765
-3.00544e-05
-0.000859235
0.000332844
-4.4171e-05
-0.00106516
0.000270622
-5.77267e-05
-0.00124995
4.50678e-05
-5.60433e-05
-0.00125096
-0.000514656
-2.16248e-05
-0.000850899
-0.00144112
6.07678e-06
-0.0023016
-0.000104942
-3.02371e-05
0.000243289
-1.75636e-05
-7.73878e-05
0.00041969
-2.18868e-05
-0.000122971
0.000450542
-2.11241e-05
-0.000163273
0.000437505
-1.88572e-05
-0.000199046
0.000416209
-1.6285e-05
-0.00023167
0.000395674
-1.37398e-05
-0.000262509
0.000378095
-1.14514e-05
-0.000293111
0.000364644
-9.5851e-06
-0.000325544
0.000356639
-8.27455e-06
-0.000362821
0.000355858
-7.68194e-06
-0.000409746
0.000364797
-8.037e-06
-0.000474041
0.000386541
-9.61029e-06
-0.000568006
0.000424297
-1.2403e-05
-0.00070791
0.000476478
-1.44701e-05
-0.000908402
0.00052455
-6.58936e-06
-0.00115669
0.000490467
3.61297e-05
-0.00138549
0.000201659
0.00015172
-0.00139051
-0.00063
0.00033032
-0.000900977
-0.00200045
0.000353541
-0.00319598
-1.24654e-05
-3.785e-05
0.000288681
-2.34256e-05
-9.29918e-05
0.000485898
-2.82828e-05
-0.000143312
0.000511435
-2.67102e-05
-0.00018561
0.000489157
-2.30803e-05
-0.00022041
0.000458929
-1.92532e-05
-0.000249901
0.00043158
-1.55075e-05
-0.000276025
0.00040916
-1.20758e-05
-0.000300438
0.000392594
-9.08911e-06
-0.00032483
0.000383235
-6.62125e-06
-0.000351496
0.000383385
-4.68586e-06
-0.000384607
0.000397252
-3.11354e-06
-0.000431231
0.000430363
-1.18744e-06
-0.000504303
0.000490702
3.57863e-06
-0.000620614
0.000577732
2.01581e-05
-0.000798536
0.000668433
7.39429e-05
-0.00102902
0.00064652
0.000215412
-0.00127906
0.000311554
0.000485459
-0.00131067
-0.000754519
0.000733878
-0.000822353
-0.00246931
0.000532197
-0.00394191
-8.99201e-05
-7.08842e-05
0.00036888
-3.33114e-05
-0.000132562
0.000560948
-4.06988e-05
-0.000179025
0.000570743
-3.78938e-05
-0.00021371
0.000535223
-3.23646e-05
-0.000242186
0.00049702
-2.59596e-05
-0.000266411
0.000463469
-1.96238e-05
-0.000287218
0.000435618
-1.38091e-05
-0.000304822
0.000413847
-8.73626e-06
-0.00031957
0.000399637
-4.42086e-06
-0.000331798
0.00039516
-6.83041e-07
-0.000343178
0.000405651
3.03297e-06
-0.000356801
0.000437066
8.81201e-06
-0.000382104
0.000501774
2.23537e-05
-0.000429525
0.00059687
5.98703e-05
-0.00052813
0.000711357
0.000158672
-0.000677945
0.000695298
0.000376147
-0.000897944
0.000377446
0.000715211
-0.000970807
-0.000798122
0.000871286
-0.000615415
-0.00271209
0.000371959
-0.00448629
-0.000276205
-5.0871e-05
0.000430865
-5.05384e-05
-0.000143409
0.000672262
-5.59637e-05
-0.000210609
0.000655481
-4.96531e-05
-0.000255545
0.000595954
-3.90375e-05
-0.000284098
0.000538715
-2.93668e-05
-0.000301253
0.000490865
-2.01143e-05
-0.000310323
0.000451961
-1.1806e-05
-0.000312738
0.000420506
-4.58215e-06
-0.000308758
0.000397188
1.44406e-06
-0.000296644
0.000381748
6.45591e-06
-0.000275304
0.00037927
1.15244e-05
-0.000240464
0.000391879
1.93774e-05
-0.000192734
0.000434591
3.68331e-05
-0.000131235
0.000501103
8.16221e-05
-7.66266e-05
0.000597849
0.00018808
-8.14322e-05
0.000609086
0.000401644
-0.000171515
0.000356579
0.000693784
-0.000327519
-0.000695552
0.000721417
-0.000210444
-0.00270939
0.000160391
-0.00468522
-0.000424823
-0.000196303
0.000637582
-6.0651e-05
-0.0002401
0.000732987
-7.67771e-05
-0.000276575
0.000710118
-7.29762e-05
-0.000305044
0.0006412
-5.9484e-05
-0.000309558
0.000558259
-4.27139e-05
-0.000296846
0.00049067
-2.6781e-05
-0.000272665
0.000437007
-1.2981e-05
-0.000238538
0.000392073
-1.6692e-06
-0.000196962
0.000358152
6.82487e-06
-0.000145314
0.000329286
1.3277e-05
-8.36257e-05
0.000312702
1.78982e-05
-4.86402e-06
0.000302582
2.31992e-05
9.82799e-05
0.000313307
3.40926e-05
0.000232599
0.00033618
6.22541e-05
0.000408573
0.000378373
0.000130637
0.00058448
0.000376526
0.000274148
0.000750179
0.000152298
0.000425394
0.000647183
-0.000585611
0.000453379
0.000430501
-0.00241347
6.06299e-05
-0.00432442
-0.000504664
-0.000665924
0.00129119
-0.000150945
-0.000628405
0.000714082
-0.000132409
-0.000492865
0.000596235
-0.000103185
-0.000304144
0.000478051
-7.60527e-05
-0.000106493
0.000386061
-5.50148e-05
8.7983e-05
0.000319045
-3.61346e-05
0.000271871
0.00027206
-1.96722e-05
0.000444641
0.000234502
-5.62634e-06
0.000606136
0.000208068
5.7423e-06
0.000758257
0.000184455
1.41067e-05
0.000904244
0.000169834
1.94353e-05
0.00104765
0.000157418
2.12682e-05
0.00120178
0.000151991
2.22936e-05
0.00137201
0.000151593
2.60191e-05
0.00159831
0.000136184
3.29801e-05
0.00184979
0.000104053
9.47846e-05
0.0020831
-8.17742e-05
0.000122885
0.00208054
-0.000524149
0.000126262
0.00140719
-0.00170083
-7.85441e-08
-0.0031059
-0.000540768
0.00127065
-0.000126746
0.00197316
-0.00014443
0.00256356
-0.00014633
0.00304413
-0.000138428
0.00343991
-0.000126473
0.00377275
-0.000114018
0.00406167
-0.000101336
0.00431391
-8.85658e-05
0.00454011
-7.6768e-05
0.00474198
-6.50604e-05
0.00492685
-5.41154e-05
0.00509836
-4.62629e-05
0.00526003
-3.51007e-05
0.00542146
-3.38339e-05
0.00556336
-1.9743e-05
0.0056802
-2.66384e-05
0.00560643
-1.81172e-07
0.00511156
-5.48991e-05
0.00340542
-9.11443e-05
-0.00057921
-4.53651e-06
4.70504e-06
-9.52916e-07
-1.4591e-05
1.05369e-05
-9.93518e-07
-2.62602e-05
1.2239e-05
-8.91991e-07
-3.80351e-05
1.23702e-05
-7.99175e-07
-4.94309e-05
1.19859e-05
-7.76212e-07
-6.02261e-05
1.13694e-05
-8.1947e-07
-7.02026e-05
1.05345e-05
-9.26022e-07
-7.90907e-05