/*--------------------------------*- C++ -*----------------------------------*\
  =========                 |
  \\      /  F ield         | OpenFOAM: The Open Source CFD Toolbox
   \\    /   O peration     | Website:  https://openfoam.org
    \\  /    A nd           | Version:  10
     \\/     M anipulation  |
\*---------------------------------------------------------------------------*/
FoamFile
{
    format      ascii;
    class       surfaceScalarField;
    location    "5.875";
    object      phi;
}
// * * * * * * * * * * * * * * * * * * * * * * * * * * * * * * * * * * * * * //

dimensions      [0 3 -1 0 0 0 0];

internalField   nonuniform List<scalar> 
890
(
0.00984798
0.000152017
0.00971769
0.000130295
0.00947036
0.000247328
0.00942148
4.88768e-05
0.000150023
0.00927146
0.0101197
3.23228e-05
0.0102009
4.9139e-05
0.0104057
4.24687e-05
0.0104664
-1.18089e-05
-6.29463e-05
0.0106794
0.0100714
-3.91011e-05
0.0102142
-9.36632e-05
0.0103783
-0.000121597
0.0105172
-0.000150749
-0.000190295
0.0106446
0.0100876
-0.0001267
0.0102148
-0.000220911
0.0103299
-0.000236661
0.0104163
-0.000237111
-0.000254991
0.010481
0.0098733
0.00965239
0.00941573
0.00917862
0.00892363
0.00925674
-0.000104798
0.000119522
0.00927909
-0.000255307
0.000232948
0.00936832
-0.000369381
0.000280151
0.00951655
-0.000461812
0.000313587
0.00970924
-0.000576388
0.000383702
0.00993113
-0.000773032
0.000551135
0.0101587
-0.00101072
0.000783176
0.0103822
-0.00130822
0.00108467
0.0105794
-0.00162993
0.00143273
0.0107395
-0.00196736
0.0018073
0.0108346
-0.00228669
0.00219155
0.0108663
-0.00254312
0.00251142
0.0108257
-0.00271329
0.00275391
0.0106834
-0.00275256
0.00289485
0.0104458
-0.00264859
0.00288624
0.0101631
-0.00249895
0.00278161
0.00985386
-0.00227828
0.00258752
0.00951704
-0.00194374
0.00228055
0.00916452
-0.00155775
0.00191027
0.00880761
-0.0011633
0.00152021
0.00845394
-0.000753503
0.00110717
0.00812053
-0.000371273
0.000704684
0.00783352
-7.24324e-05
0.000359442
0.00758837
0.000170867
7.42873e-05
0.00737649
0.000392808
-0.000180934
0.00718015
0.000597212
-0.000400873
0.00699712
0.000750906
-0.000567875
0.00683024
0.000815177
-0.000648296
0.00668719
0.000803774
-0.000660719
0.00657626
0.000773001
-0.000662073
0.00650389
0.000769667
-0.000697301
0.00646839
0.000793896
-0.000758388
0.00645746
0.000811261
-0.000800338
0.0064547
0.000787317
-0.000784556
0.00644784
0.00071161
-0.000704752
0.00643274
0.000596205
-0.000581104
0.00641186
0.000463871
-0.000442983
0.00638994
0.00033496
-0.000313042
0.00637073
0.000224331
-0.000205129
0.00635593
0.00013696
-0.000122151
0.00634562
7.52236e-05
-6.49137e-05
0.00633889
3.32378e-05
-2.65091e-05
0.00633484
9.73522e-06
-5.68547e-06
0.00633218
-4.20749e-06
6.85973e-06
-8.69401e-06
1.00971e-05
0.010741
-0.000166448
0.01077
-0.000284249
0.0108132
-0.000412667
0.0108705
-0.000519026
0.010947
-0.000652903
0.010989
-0.000815092
0.0110029
-0.00102462
0.0109739
-0.00127919
0.0108951
-0.00155113
0.0107593
-0.00183153
0.01055
-0.00207746
0.0102988
-0.00229185
0.00996823
-0.00238274
0.00952099
-0.00230532
0.00902806
-0.00215566
0.00850983
-0.00198072
0.00797527
-0.00174372
0.0074484
-0.00141686
0.00694573
-0.00105508
0.00647487
-0.000692435
0.00604098
-0.000319612
0.0056572
1.25058e-05
0.00533281
0.000251954
0.00505025
0.000453431
0.00481389
0.000629171
0.00465334
0.000757762
0.00459305
0.000811193
0.00461991
0.000788318
0.00470043
0.00072325
0.00480987
0.000663565
0.00494229
0.000637251
0.00509829
0.000637892
0.00527268
0.00063687
0.00545272
0.000607279
0.00562393
0.000540402
0.00577553
0.000444605
0.00590221
0.00033719
0.00600287
0.000234295
0.00607929
0.000147912
0.00613456
8.16907e-05
0.00617258
3.72005e-05
0.0061973
8.51625e-06
0.00621218
-5.13703e-06
0.00622095
-1.29854e-05
-1.20696e-05
0.0107269
-0.000248728
0.010778
-0.000335366
0.0107983
-0.000433026
0.0108039
-0.000524549
0.01079
-0.000639041
0.0107367
-0.000761764
0.0106442
-0.000932127
0.0104846
-0.00111967
0.0102824
-0.0013489
0.0100301
-0.00157919
0.00973541
-0.00178279
0.00935679
-0.00191324
0.00878882
-0.00181476
0.00813588
-0.00165238
0.00749279
-0.00151258
0.00674636
-0.0012343
0.00595485
-0.000952208
0.00523189
-0.000693902
0.00459353
-0.00041672
0.00404124
-0.000140149
0.00360816
0.000113463
0.00328394
0.000336728
0.00303308
0.000502816
0.00288501
0.000601496
0.00286159
0.000652592
0.00296282
0.000656534
0.00315459
0.000619421
0.00338764
0.000555273
0.00362481
0.000486073
0.00385437
0.000434008
0.00408468
0.000406945
0.00432722
0.000395354
0.00458304
0.000381042
0.00484085
0.000349473
0.00508389
0.000297367
0.00529719
0.000231305
0.00547178
0.000162598
0.00560506
0.000101015
0.00570004
5.29339e-05
0.00576254
1.91834e-05
0.00580061
-8.66539e-07
0.00582115
-1.20259e-05
0.0058306
-1.45841e-05
0.00583329
-1.56787e-05
-1.1112e-05
0.0105088
-0.000276563
0.0105015
-0.000328014
0.0104339
-0.000365472
0.010332
-0.000422663
0.0101662
-0.000473192
0.00995062
-0.000546222
0.00965154
-0.000633043
0.00926376
-0.000731892
0.00878998
-0.000875106
0.00819939
-0.00098861
0.00760159
-0.00118499
0.00688351
-0.00119516
0.00591426
-0.000845512
0.00472587
-0.000463991
0.00341281
-0.000199513
0.00226113
-8.26267e-05
0.00139599
-8.70687e-05
0.00083278
-0.000130687
0.000532942
-0.000116882
0.000415601
-2.28082e-05
0.000442271
8.67941e-05
0.000587707
0.000191292
0.000824267
0.000266257
0.00112169
0.000304076
0.00146328
0.000310998
0.0018232
0.000296614
0.00217532
0.000267302
0.00249884
0.000231757
0.00278631
0.000198598
0.0030463
0.000174022
0.00329432
0.000158917
0.00354076
0.000148915
0.00378482
0.000136987
0.00401582
0.000118471
0.00421962
9.35682e-05
0.00438512
6.5798e-05
0.00450798
3.97412e-05
0.00459034
1.86522e-05
0.00463941
3.86437e-06
0.00466323
-4.63432e-06
0.00467081
-8.44166e-06
0.00466841
-9.63013e-06
0.00466237
-8.54023e-06
0.00465426
-7.57632e-06
-4.81712e-06
0.00864706
0.00831905
0.00795358
0.00753091
0.00705772
0.0065115
0.00587846
0.00514656
0.00427146
0.00328285
0.00209786
0.000902705
5.71935e-05
-0.000406797
-0.00060631
-0.000688937
-0.000776006
-0.000906693
-0.00102357
-0.00104638
-0.000959588
-0.000768297
-0.00050204
-0.000197964
0.000113035
0.000409649
0.000676951
0.000908708
0.00110731
0.00128133
0.00144024
0.00158916
0.00172615
0.00184462
0.00193819
0.00200398
0.00204372
0.00206238
0.00206624
0.00206161
0.00205317
0.00204354
0.002035
0.00202742
5.86712e-05
-5.86712e-05
-1.1037e-05
6.97082e-05
-0.000333078
0.000322041
-0.000953436
0.000620358
-0.00171464
0.000761207
-0.00243292
0.000718273
-0.00301806
0.000585145
-0.00344106
0.000423003
-0.00368154
0.000240481
-0.00372938
4.78397e-05
-0.00359543
-0.00013395
-0.0032911
-0.000304335
-0.002833
-0.000458099
-0.00225283
-0.000580172
-0.00158845
-0.000664383
-0.000887054
-0.000701391
-0.000183148
-0.000703907
0.000495007
-0.000678154
0.00112015
-0.000625145
0.00166546
-0.000545303
0.00211633
-0.000450874
0.00247014
-0.000353813
0.0027318
-0.00026166
0.00290217
-0.00017037
0.00297364
-7.1468e-05
0.00294042
3.32226e-05
0.00281285
0.000127569
0.00261204
0.000200812
0.00238052
0.000231511
0.00215845
0.000222074
0.00197704
0.000181408
0.00184944
0.000127605
0.00177495
7.44867e-05
0.0017451
2.98501e-05
0.00174995
-4.8519e-06
0.00177634
-2.6386e-05
0.00181396
-3.7622e-05
0.00185435
-4.03849e-05
0.00189188
-3.7537e-05
0.0019238
-3.19151e-05
0.001949
-2.52051e-05
0.00196825
-1.92456e-05
0.00198195
-1.37047e-05
0.00199218
-1.02231e-05
-5.81931e-06
-0.000231202
0.000172531
-0.000722359
0.000560865
-0.001252
0.000851685
-0.00170559
0.00107395
-0.0020623
0.00111792
-0.00232782
0.000983796
-0.00248017
0.000737487
-0.00250993
0.000452768
-0.00240744
0.000137991
-0.00218118
-0.000178426
-0.00181427
-0.000500855
-0.00130939
-0.000809214
-0.00068501
-0.00108248
3.16601e-05
-0.00129684
0.000788252
-0.00142097
0.00156529
-0.00147843
0.00232934
-0.00146796
0.00304505
-0.00139386
0.00368795
-0.00126805
0.00424487
-0.00110222
0.00469947
-0.000905478
0.00504376
-0.000698102
0.00529195
-0.00050985
0.0054673
-0.000345717
0.00558574
-0.000189911
0.00566004
-4.10751e-05
0.00569998
8.76262e-05
0.00571982
0.000180974
0.0056904
0.000260931
0.00557824
0.000334236
0.00537618
0.000383467
0.00511981
0.00038397
0.00486804
0.000326261
0.00466845
0.000229437
0.00453827
0.000125333
0.00447342
3.84563e-05
0.00445539
-1.95914e-05
0.00446547
-5.04597e-05
0.00448866
-6.07278e-05
0.00451571
-5.89671e-05
0.00454094
-5.04349e-05
0.00456295
-4.12561e-05
0.00457981
-3.05666e-05
0.00459387
-2.42801e-05
-1.46211e-05
-0.000477174
0.000649704
-0.000632374
0.000716065
-0.000611695
0.000831006
-0.00049619
0.000958443
-0.000333584
0.000955309
-0.000138279
0.000788492
8.36838e-05
0.000515524
0.000355331
0.000181121
0.000694371
-0.000201049
0.00112882
-0.000612873
0.00165028
-0.00102231
0.00223815
-0.00139708
0.00288009
-0.00172442
0.00355361
-0.00197037
0.00423328
-0.00210064
0.00489302
-0.00213817
0.00551402
-0.00208896
0.0060669
-0.00194674
0.00653293
-0.00173408
0.00690716
-0.00147645
0.00718859
-0.00118691
0.00737634
-0.000885848
0.00747565
-0.000609163
0.00750989
-0.000379956
0.0074934
-0.000173427
0.00742562
2.67092e-05
0.00732579
0.000187456
0.00723231
0.000274451
0.00717159
0.000321654
0.00712392
0.000381905
0.00704323
0.000464155
0.00689537
0.000531834
0.00668476
0.000536873
0.00644872
0.000465475
0.00622991
0.000344139
0.00605508
0.000213291
0.00593156
0.000103923
0.00585313
2.79721e-05
0.00580893
-1.65312e-05
0.00578777
-3.7802e-05
0.00578026
-4.29243e-05
0.00578091
-4.19111e-05
0.00578471
-3.43618e-05
0.00579044
-3.00094e-05
-1.94374e-05
-0.000165054
0.000814758
4.25424e-05
0.000508468
0.000407789
0.000465759
0.000902957
0.000463274
0.00145732
0.000400942
0.00202367
0.00022215
0.00258696
-4.77697e-05
0.00314547
-0.000377386
0.00371333
-0.000768911
0.00429436
-0.0011939
0.0048991
-0.00162705
0.0055073
-0.00200528
0.00610518
-0.00232231
0.00668603
-0.00255122
0.00722514
-0.00263975
0.00770323
-0.00261625
0.0081117
-0.00249744
0.00843644
-0.00227148
0.00867513
-0.00197276
0.00883186
-0.00163318
0.00890888
-0.00126393
0.00891657
-0.000893534
0.00886687
-0.000559463
0.00876813
-0.000281223
0.00863963
-4.49208e-05
0.00848619
0.000180146
0.00831708
0.000356562
0.00813883
0.00045271
0.00797681
0.000483672
0.00784921
0.000509506
0.00774198
0.000571384
0.00762438
0.00064943
0.00747214
0.000689115
0.00728138
0.000656231
0.0070682
0.000557327
0.00685754
0.00042395
0.0066707
0.000290757
0.00651989
0.000178787
0.00640684
9.65148e-05
0.00632808
4.09618e-05
0.00627664
8.51555e-06
0.00624545
-1.07189e-05
0.00622804
-1.6955e-05
0.00621875
-2.07237e-05
-1.62594e-05
0.00093428
0.0016757
0.00242161
0.00319847
0.00398311
0.0047564
0.0054918
0.00619909
0.0068629
0.0074763
0.0080408
0.00854694
0.00897854
0.00932218
0.00956867
0.00973403
0.00982411
0.00983318
0.00977069
0.00965773
0.00950096
0.00931211
0.00911209
0.00890516
0.0086793
0.00845858
0.00824726
0.00805168
0.00787463
0.00772206
0.00759615
0.00748719
0.00737596
0.00724764
0.00710021
0.00694306
0.00679083
0.00665658
0.00654796
0.00646678
0.00641038
0.00637315
0.00635051
0.00633664
)
;

boundaryField
{
    inlet
    {
        type            calculated;
        value           nonuniform List<scalar> 5(-0.01 -0.01 -0.01 -0.01 -0.01);
    }
    outlet
    {
        type            calculated;
        value           nonuniform List<scalar> 10(0.00633078 0.00622433 0.00583234 0.00464797 0.0020226 0.001998 0.00460267 0.00579525 0.00621558 0.00633048);
    }
    upperWall
    {
        type            calculated;
        value           uniform 0;
    }
    lowerWall
    {
        type            calculated;
        value           uniform 0;
    }
    frontAndBack
    {
        type            empty;
        value           nonuniform List<scalar> 0();
    }
}


// ************************************************************************* //
