/*--------------------------------*- C++ -*----------------------------------*\
  =========                 |
  \\      /  F ield         | OpenFOAM: The Open Source CFD Toolbox
   \\    /   O peration     | Website:  https://openfoam.org
    \\  /    A nd           | Version:  10
     \\/     M anipulation  |
\*---------------------------------------------------------------------------*/
FoamFile
{
    format      ascii;
    class       volScalarField;
    location    "8.675";
    object      p;
}
// * * * * * * * * * * * * * * * * * * * * * * * * * * * * * * * * * * * * * //

dimensions      [0 2 -2 0 0 0 0];

internalField   nonuniform List<scalar> 
400
(
3.72088e-09
-2.74143e-05
2.98092e-05
0.000140603
0.000313106
0.000550297
0.000856797
0.00123848
0.00170114
0.00224899
0.00288285
0.00359745
0.00437765
0.00519476
0.00600198
0.00673575
0.00732127
0.00769579
0.00786315
0.00775785
3.02934e-05
2.41548e-06
6.73331e-05
0.000180706
0.000352196
0.000585614
0.000886
0.00125933
0.00171144
0.00224688
0.00286726
0.00356852
0.00433598
0.00514553
0.00595035
0.00668613
0.00727353
0.00764531
0.00780998
0.00768566
-3.94946e-05
-7.64088e-05
-1.33139e-05
9.53e-05
0.000259833
0.000484306
0.000774336
0.00113688
0.00157935
0.00210867
0.00272952
0.00344164
0.00423659
0.005091
0.00595684
0.00676035
0.00740224
0.00779097
0.007936
0.00774878
-0.000187618
-0.000230812
-0.000171892
-7.14401e-05
8.17604e-05
0.000292088
0.000566024
0.000911981
0.00133968
0.00185968
0.00248195
0.00321267
0.00404961
0.00497428
0.00594106
0.00686236
0.00760613
0.00802828
0.00813184
0.00783378
-0.000422979
-0.000471375
-0.000419633
-0.000331407
-0.000194694
-4.6721e-06
0.00024613
0.000567843
0.000973006
0.00147664
0.00209559
0.00284579
0.00373591
0.00475715
0.00586975
0.0069719
0.00788271
0.00836471
0.00838515
0.00789929
-0.000743974
-0.000797443
-0.000755898
-0.000684331
-0.000570233
-0.00040855
-0.000191045
9.39e-05
0.0004615
0.000931372
0.00152803
0.00228
0.00321301
0.00433523
0.00563034
0.006992
0.00817378
0.00876819
0.00863671
0.00783003
-0.00114513
-0.00120416
-0.00117587
-0.00112596
-0.00104186
-0.000918774
-0.000748578
-0.000519209
-0.000214031
0.000189772
0.000723252
0.0014275
0.00235103
0.00353612
0.00499865
0.00668005
0.0082806
0.00909897
0.00873679
0.00743839
-0.00161898
-0.00168434
-0.00167232
-0.00164935
-0.00160344
-0.00153097
-0.00142531
-0.00127623
-0.0010689
-0.000781413
-0.000382033
0.000174215
0.000949332
0.00201901
0.0034575
0.00538663
0.00754925
0.0088431
0.00831554
0.00662768
-0.00215601
-0.00222853
-0.00223519
-0.00224386
-0.00224398
-0.00223439
-0.00221201
-0.00217151
-0.00210497
-0.00200042
-0.00183925
-0.00159362
-0.00122924
-0.0006924
0.000176543
0.00169538
0.00418105
0.0064967
0.00670069
0.00575506
-0.00274488
-0.00282513
-0.00285133
-0.00289434
-0.00294604
-0.00300922
-0.00308677
-0.0031822
-0.00330109
-0.00345295
-0.0036551
-0.00394517
-0.00442382
-0.0052742
-0.00647176
-0.00702644
-0.00511119
-0.000798004
0.00286965
0.00516353
-0.00337305
-0.00346121
-0.00350508
-0.0035815
-0.00368544
-0.00382533
-0.00401223
-0.00426213
-0.00460103
-0.00507343
-0.00575999
-0.00681374
-0.00856323
-0.0116858
-0.016392
-0.0211023
-0.0209019
-0.0141986
-0.00576736
0.00157956
-0.00402808
-0.00412317
-0.00417778
-0.00428064
-0.00442993
-0.00464085
-0.00493332
-0.00533712
-0.00590161
-0.00671265
-0.00792927
-0.00985251
-0.0130621
-0.0187042
-0.0271607
-0.0363386
-0.0385476
-0.0306607
-0.0191406
-0.0075546
-0.00470185
-0.00480305
-0.00485692
-0.00497264
-0.0051507
-0.00541384
-0.00578982
-0.00631897
-0.00706843
-0.00815297
-0.00978244
-0.0123438
-0.0165392
-0.0235624
-0.0339261
-0.0444743
-0.0482421
-0.040672
-0.0303271
-0.0176252
-0.00538589
-0.00548303
-0.00550877
-0.0056113
-0.00579331
-0.00608166
-0.00650524
-0.0071089
-0.00796442
-0.00919033
-0.0110022
-0.013765
-0.0181882
-0.0250805
-0.0353737
-0.0440641
-0.0487731
-0.0415868
-0.0340134
-0.02218
-0.00610704
-0.0062073
-0.00618092
-0.00624711
-0.00639342
-0.00665888
-0.00707398
-0.00768164
-0.00854832
-0.00977548
-0.0115491
-0.0141233
-0.0181459
-0.0239934
-0.0320147
-0.0386731
-0.0415747
-0.0355776
-0.0314574
-0.01996
-0.00694969
-0.00685259
-0.00669245
-0.00663369
-0.00671636
-0.00695276
-0.00735411
-0.00794373
-0.00877168
-0.00991501
-0.0114638
-0.0137001
-0.0169269
-0.0212366
-0.0267754
-0.0310015
-0.0325853
-0.0271791
-0.0253456
-0.0105758
-0.00740897
-0.0078078
-0.00746452
-0.00742304
-0.00736648
-0.00745757
-0.00770885
-0.00815362
-0.0088353
-0.00978709
-0.0111357
-0.0129836
-0.0155208
-0.0186486
-0.0224669
-0.024887
-0.0253698
-0.0199246
-0.0169408
0.00784334
-0.0107851
-0.00823151
-0.0075322
-0.00686915
-0.00673318
-0.00685829
-0.00718845
-0.00768685
-0.0083804
-0.00925569
-0.0104802
-0.0120604
-0.0141626
-0.0165609
-0.0192612
-0.0204317
-0.0198061
-0.0127716
-0.00319067
0.0399097
-0.00740554
-0.0103627
-0.00919545
-0.00912627
-0.00859859
-0.00830748
-0.00820711
-0.00832418
-0.00871057
-0.00934875
-0.0103648
-0.011726
-0.0137276
-0.016004
-0.0188063
-0.0196815
-0.0181589
-0.00428832
0.0208518
0.0973534
-0.0326488
-0.00753112
-0.00590567
-0.00509025
-0.00484079
-0.00500883
-0.00547764
-0.00605731
-0.00683993
-0.00774712
-0.00901918
-0.0105017
-0.012417
-0.0140635
-0.0151394
-0.0119393
-0.00151773
0.0325021
0.0984836
0.228902
)
;

boundaryField
{
    movingWall
    {
        type            zeroGradient;
    }
    fixedWalls
    {
        type            zeroGradient;
    }
    frontAndBack
    {
        type            empty;
    }
}


// ************************************************************************* //
