/*--------------------------------*- C++ -*----------------------------------*\
  =========                 |
  \\      /  F ield         | OpenFOAM: The Open Source CFD Toolbox
   \\    /   O peration     | Website:  https://openfoam.org
    \\  /    A nd           | Version:  10
     \\/     M anipulation  |
\*---------------------------------------------------------------------------*/
FoamFile
{
    format      ascii;
    class       surfaceScalarField;
    location    "8.675";
    object      phi;
}
// * * * * * * * * * * * * * * * * * * * * * * * * * * * * * * * * * * * * * //

dimensions      [0 3 -1 0 0 0 0];

internalField   nonuniform List<scalar> 
760
(
-1.30074e-05
1.30074e-05
-4.19344e-05
2.8927e-05
-7.67698e-05
3.48353e-05
-0.000113573
3.68029e-05
-0.000151135
3.75626e-05
-0.000189136
3.80008e-05
-0.000227249
3.81132e-05
-0.000264796
3.75469e-05
-0.000300575
3.57789e-05
-0.00033272
3.21455e-05
-0.000358598
2.58777e-05
-0.000374776
1.61783e-05
-0.000377184
2.40755e-06
-0.00036148
-1.57044e-05
-0.000324294
-3.71859e-05
-0.000264815
-5.94787e-05
-0.000187139
-7.76766e-05
-0.000102421
-8.4718e-05
-2.9761e-05
-7.26595e-05
-2.9761e-05
-3.12477e-05
4.42551e-05
-8.81252e-05
8.58045e-05
-0.000154642
0.000101352
-0.000224265
0.000106426
-0.000294506
0.000107804
-0.000364217
0.000107712
-0.000432321
0.000106217
-0.000497285
0.00010251
-0.000556849
9.53425e-05
-0.000607838
8.31349e-05
-0.000646048
6.40882e-05
-0.000666156
3.62857e-05
-0.000662687
-1.06162e-06
-0.000629134
-4.92574e-05
-0.000561121
-0.000105199
-0.000457991
-0.000162609
-0.000326291
-0.000209377
-0.000183483
-0.000227526
-5.91951e-05
-0.000196948
-8.89561e-05
-3.96621e-05
8.39173e-05
-0.000109729
0.000155871
-0.000190794
0.000182417
-0.000275032
0.000190664
-0.000359489
0.000192261
-0.000442776
0.000190999
-0.000523637
0.000187078
-0.000600373
0.000179246
-0.000670547
0.000165517
-0.000730748
0.000143335
-0.000776386
0.000109726
-0.000801771
6.16707e-05
-0.000799749
-3.08347e-06
-0.000762525
-8.64816e-05
-0.000683524
-0.000184199
-0.000560131
-0.000286001
-0.000398806
-0.000370701
-0.000221508
-0.000404825
-6.86763e-05
-0.000349779
-0.000157632
-4.2903e-05
0.00012682
-0.00011871
0.000231678
-0.000206155
0.000269863
-0.000296867
0.000281375
-0.000387884
0.000283278
-0.000477985
0.000281101
-0.000566159
0.000275253
-0.000651018
0.000264105
-0.000730464
0.000244963
-0.000801365
0.000214236
-0.000859162
0.000167523
-0.000897472
9.99812e-05
-0.000908161
7.60562e-06
-0.000880237
-0.000114406
-0.000802492
-0.000261944
-0.000666814
-0.000421679
-0.000476023
-0.000561492
-0.000257452
-0.000623396
-7.18152e-05
-0.000535416
-0.000229448
-4.37099e-05
0.00017053
-0.000121798
0.000309766
-0.000212097
0.000360162
-0.000306041
0.000375319
-0.000400886
0.000378122
-0.000495822
0.000376037
-0.000590393
0.000369824
-0.000683887
0.000357599
-0.000774963
0.000336038
-0.000861207
0.000300481
-0.000938504
0.00024482
-0.00100017
0.000161643
-0.00103594
4.33825e-05
-0.00103179
-0.000118564
-0.000968453
-0.000325276
-0.000827063
-0.000563069
-0.000599548
-0.000789008
-0.000314878
-0.000908066
-7.47693e-05
-0.000775524
-0.000304217
-4.34594e-05
0.000213989
-0.000122313
0.00038862
-0.000214004
0.000451853
-0.000309902
0.000471217
-0.000407578
0.000475798
-0.000506804
0.000475263
-0.000607916
0.000470937
-0.000711225
0.000460907
-0.000816618
0.000441432
-0.000923038
0.0004069
-0.00102762
0.000349399
-0.00112433
0.00025836
-0.00120197
0.000121024
-0.0012433
-7.72381e-05
-0.00121907
-0.000349505
-0.00109087
-0.000691274
-0.000821962
-0.00105791
-0.000428425
-0.0013016
-8.72175e-05
-0.00111673
-0.000391434
-4.26739e-05
0.000256663
-0.00012154
0.000467486
-0.000213844
0.000544157
-0.000310903
0.000568277
-0.000410635
0.00057553
-0.000513489
0.000578117
-0.000620807
0.000578254
-0.000734264
0.000574365
-0.000855566
0.000562734
-0.000985944
0.000537278
-0.00112524
0.000488696
-0.00127035
0.000403465
-0.00141242
0.000263097
-0.00153512
4.54595e-05
-0.00159865
-0.00028597
-0.00153081
-0.000759118
-0.0012298
-0.00135893
-0.000670839
-0.00186056
-0.000142938
-0.00164463
-0.000534372
-4.14965e-05
0.00029816
-0.000119836
0.000545825
-0.000212059
0.00063638
-0.000309349
0.000665566
-0.000409933
0.000676115
-0.000514963
0.000683147
-0.000626898
0.000690189
-0.0007491
0.000696567
-0.000885734
0.000699368
-0.00104155
0.000693095
-0.00122135
0.000668498
-0.00142886
0.000610972
-0.00166456
0.000498799
-0.00191703
0.000297931
-0.00214816
-5.48483e-05
-0.00221473
-0.000692541
-0.0019042
-0.00166946
-0.00114669
-0.00261807
-0.00032936
-0.00246196
-0.000863732
-4.0004e-05
0.000338164
-0.000117356
0.000623177
-0.000208712
0.000727736
-0.000304956
0.000761811
-0.000404522
0.00077568
-0.000509185
0.00078781
-0.00062249
0.000803493
-0.00074954
0.000823617
-0.000897323
0.000847151
-0.00107524
0.000871018
-0.00129576
0.000889012
-0.00157495
0.000890163
-0.00193158
0.000855428
-0.00237039
0.000736739
-0.00281966
0.00039443
-0.00306565
-0.000446554
-0.00277463
-0.00196048
-0.00190395
-0.00348875
-0.000770541
-0.00359537
-0.00163427
-3.839e-05
0.000376554
-0.000114471
0.000699258
-0.000204129
0.000817394
-0.000297731
0.000855413
-0.000393729
0.000871679
-0.000494335
0.000888416
-0.000603919
0.000913077
-0.000729033
0.000948731
-0.000879236
0.000997355
-0.00106865
0.00106043
-0.00131846
0.00113882
-0.0016597
0.0012314
-0.00212901
0.00132474
-0.00273559
0.00134332
-0.0033602
0.00101904
-0.00370194
-0.000104809
-0.00350807
-0.00215435
-0.00275907
-0.00423775
-0.00144052
-0.00491392
-0.00307479
-3.70867e-05
0.00041364
-0.000112041
0.000774213
-0.00019931
0.000904663
-0.000288515
0.000944617
-0.0003779
0.000961064
-0.000469803
0.000980318
-0.000568891
0.00101217
-0.000682288
0.00106213
-0.000820808
0.00113587
-0.00100126
0.00124088
-0.00125007
0.00138763
-0.00160553
0.00158687
-0.00210417
0.00182338
-0.00272869
0.00196785
-0.00333048
0.00162082
-0.00365475
0.000219469
-0.00359638
-0.00221273
-0.00311368
-0.00472045
-0.00190599
-0.00612161
-0.00498078
-3.69827e-05
0.000450623
-0.000111797
0.000849027
-0.00019633
0.000989195
-0.000279354
0.00102764
-0.00035888
0.00104059
-0.000437036
0.00105847
-0.00051801
0.00109314
-0.000608027
0.00115215
-0.000716441
0.00124429
-0.000857499
0.00138193
-0.00105238
0.00158251
-0.00132757
0.00186206
-0.0016986
0.00219441
-0.00212571
0.00239495
-0.00250808
0.00200319
-0.00273082
0.000442213
-0.00279986
-0.00214369
-0.00263425
-0.00488606
-0.00179931
-0.00695655
-0.00678009
-3.91956e-05
0.000489819
-0.000115968
0.0009258
-0.000198247
0.00107147
-0.000273949
0.00110334
-0.000340751
0.00110739
-0.000400375
0.0011181
-0.000455979
0.00114874
-0.000511343
0.00120751
-0.00057152
0.00130447
-0.000643122
0.00145354
-0.000733985
0.00167337
-0.000848375
0.00197645
-0.000983527
0.00232956
-0.00110964
0.00252107
-0.00122272
0.00211627
-0.00132179
0.000541278
-0.001493
-0.00197248
-0.00168021
-0.00469885
-0.00134123
-0.00729553
-0.00812132
-4.76241e-05
0.000537443
-0.000130802
0.00100898
-0.00021081
0.00115148
-0.000276608
0.00116914
-0.000327688
0.00115847
-0.000365718
0.00115613
-0.000391881
0.00117491
-0.000407063
0.00122269
-0.000411266
0.00130867
-0.000402511
0.00144478
-0.000375285
0.00164615
-0.000315039
0.0019162
-0.000209917
0.00222444
-6.98801e-05
0.00238103
4.07854e-05
0.0020056
-1.77733e-06
0.00058384
-0.000281151
-0.0016931
-0.000810735
-0.00416926
-0.000905122
-0.00720114
-0.00902645
-5.87245e-05
0.000596167
-0.000152372
0.00110263
-0.000235175
0.00123428
-0.000296417
0.00123038
-0.000333285
0.00119534
-0.000348333
0.00117118
-0.000342906
0.00116948
-0.000316153
0.00119594
-0.000264393
0.00125691
-0.000179592
0.00135998
-4.68987e-05
0.00151345
0.000151496
0.00171781
0.0004336
0.00194234
0.000775184
0.00203945
0.00104669
0.0017341
0.0010332
0.000597327
0.000617313
-0.00127721
-0.000163403
-0.00338855
-0.000559744
-0.0068048
-0.00958619
-0.000126446
0.000722613
-0.000234419
0.0012106
-0.000301201
0.00130107
-0.000334959
0.00126414
-0.000345066
0.00120545
-0.000334691
0.0011608
-0.000301884
0.00113667
-0.00024172
0.00113577
-0.000146948
0.00116214
-6.17388e-06
0.00121921
0.000193555
0.00131372
0.000472267
0.00143909
0.000841103
0.0015735
0.00126592
0.00161463
0.00161005
0.00138996
0.00162411
0.000583274
0.0011635
-0.000816608
0.000276635
-0.00250168
-0.000280836
-0.00624733
-0.00986703
-8.15696e-05
0.000804183
-0.000255356
0.00138438
-0.000361623
0.00140733
-0.000407683
0.0013102
-0.000410627
0.00120839
-0.000380806
0.00113098
-0.000320552
0.00107642
-0.00022684
0.00104206
-9.36316e-05
0.00102893
9.03918e-05
0.00103518
0.00033644
0.00106768
0.00065825
0.00111728
0.00105581
0.00117594
0.00149494
0.00117551
0.00185278
0.00103213
0.00188501
0.000551042
0.00144879
-0.000380395
0.000638074
-0.00169096
9.15588e-05
-0.00570081
-0.00977547
-0.000377649
0.00118183
-0.000431212
0.00143795
-0.000473734
0.00144986
-0.000504112
0.00134058
-0.000486771
0.00119105
-0.000427852
0.00107206
-0.000330676
0.000979243
-0.000193141
0.000904528
-1.54958e-05
0.000851283
0.000208529
0.000811157
0.00048329
0.000792916
0.000816876
0.000783698
0.00120055
0.000792263
0.00159579
0.000780268
0.00193567
0.000692246
0.00204198
0.000444738
0.00190048
-0.000238904
0.00151434
-0.00130482
0.000850258
-0.00503673
-0.00892521
-0.00136288
0.00254472
-0.00132432
0.00139938
-0.00106228
0.00118782
-0.000687724
0.000966022
-0.000293072
0.000796399
0.000105662
0.000673326
0.000497707
0.000587199
0.000882644
0.000519591
0.00126241
0.000471516
0.00164285
0.000430721
0.00203091
0.000404858
0.0024316
0.000383001
0.00285818
0.00036569
0.00329762
0.000340819
0.00372628
0.000263586
0.00404108
0.000129946
0.00412297
-0.000320796
0.0039658
-0.00114765
0.00251462
-0.00358555
-0.00641059
0.00254472
0.0039441
0.00513192
0.00609794
0.00689434
0.00756766
0.00815486
0.00867445
0.00914597
0.00957669
0.00998155
0.0103645
0.0107302
0.0110711
0.0113346
0.0114646
0.0111438
0.00999614
0.00641059
)
;

boundaryField
{
    movingWall
    {
        type            calculated;
        value           uniform 0;
    }
    fixedWalls
    {
        type            calculated;
        value           uniform 0;
    }
    frontAndBack
    {
        type            empty;
        value           nonuniform List<scalar> 0();
    }
}


// ************************************************************************* //
