/*--------------------------------*- C++ -*----------------------------------*\
  =========                 |
  \\      /  F ield         | OpenFOAM: The Open Source CFD Toolbox
   \\    /   O peration     | Website:  https://openfoam.org
    \\  /    A nd           | Version:  10
     \\/     M anipulation  |
\*---------------------------------------------------------------------------*/
FoamFile
{
    format      ascii;
    class       surfaceScalarField;
    location    "0.725";
    object      phi;
}
// * * * * * * * * * * * * * * * * * * * * * * * * * * * * * * * * * * * * * //

dimensions      [0 3 -1 0 0 0 0];

internalField   nonuniform List<scalar> 
760
(
-1.0649e-05
1.0649e-05
-2.26577e-05
1.20087e-05
-3.41514e-05
1.14938e-05
-4.47628e-05
1.06113e-05
-5.42264e-05
9.46366e-06
-6.23145e-05
8.08807e-06
-6.88374e-05
6.52286e-06
-7.3645e-05
4.80767e-06
-7.66272e-05
2.98222e-06
-7.77132e-05
1.08591e-06
-7.68711e-05
-8.42082e-07
-7.41093e-05
-2.76177e-06
-6.94773e-05
-4.63201e-06
-6.30677e-05
-6.40962e-06
-5.50184e-05
-8.04931e-06
-4.55139e-05
-9.50443e-06
-3.47853e-05
-1.07287e-05
-2.31088e-05
-1.16764e-05
-1.08734e-05
-1.22355e-05
-1.08734e-05
-1.25451e-05
2.31941e-05
-2.65734e-05
2.60371e-05
-3.99943e-05
2.49146e-05
-5.23779e-05
2.29949e-05
-6.34137e-05
2.04994e-05
-7.28374e-05
1.75117e-05
-8.04308e-05
1.41163e-05
-8.60229e-05
1.03998e-05
-8.94886e-05
6.4479e-06
-9.07479e-05
2.34525e-06
-8.9765e-05
-1.82499e-06
-8.65495e-05
-5.97727e-06
-8.11572e-05
-1.00243e-05
-7.36932e-05
-1.38737e-05
-6.43146e-05
-1.74279e-05
-5.32335e-05
-2.05855e-05
-4.0717e-05
-2.32452e-05
-2.70883e-05
-2.53052e-05
-1.28014e-05
-2.65223e-05
-2.36748e-05
-1.3228e-05
3.6422e-05
-2.80177e-05
4.08268e-05
-4.21513e-05
3.90482e-05
-5.51763e-05
3.60199e-05
-6.67683e-05
3.20915e-05
-7.66548e-05
2.73982e-05
-8.46138e-05
2.20754e-05
-9.04736e-05
1.62595e-05
-9.41094e-05
1.00837e-05
-9.54415e-05
3.67736e-06
-9.44327e-05
-2.83372e-06
-9.10904e-05
-9.31962e-06
-8.54661e-05
-1.56485e-05
-7.7661e-05
-2.16788e-05
-6.78302e-05
-2.72587e-05
-5.61872e-05
-3.22285e-05
-4.30071e-05
-3.64252e-05
-2.86285e-05
-3.96837e-05
-1.35324e-05
-4.16185e-05
-3.72072e-05
-1.4188e-05
5.061e-05
-3.00434e-05
5.66823e-05
-4.51727e-05
5.41774e-05
-5.9088e-05
4.99352e-05
-7.14458e-05
4.44494e-05
-8.19643e-05
3.79166e-05
-9.04196e-05
3.05307e-05
-9.6642e-05
2.24818e-05
-0.00010051
1.39519e-05
-0.000101946
5.11353e-06
-0.000100912
-3.868e-06
-9.74096e-05
-1.2822e-05
-9.14828e-05
-2.15754e-05
-8.32233e-05
-2.99382e-05
-7.2779e-05
-3.77031e-05
-6.03617e-05
-4.46458e-05
-4.62547e-05
-5.05323e-05
-3.08177e-05
-5.51207e-05
-1.45745e-05
-5.78617e-05
-5.17816e-05
-1.55347e-05
6.61448e-05
-3.28778e-05
7.40254e-05
-4.93896e-05
7.06891e-05
-6.45315e-05
6.50772e-05
-7.79351e-05
5.7853e-05
-8.93088e-05
4.92903e-05
-9.84302e-05
3.96521e-05
-0.000105137
2.91885e-05
-0.000109316
1.81307e-05
-0.000110894
6.69181e-06
-0.000109832
-4.92976e-06
-0.000106125
-1.6529e-05
-9.98033e-05
-2.78974e-05
-9.09414e-05
-3.88002e-05
-7.96718e-05
-4.89727e-05
-6.61988e-05
-5.81188e-05
-5.08122e-05
-6.59188e-05
-3.38997e-05
-7.20332e-05
-1.6046e-05
-7.57155e-05
-6.78276e-05
-1.73255e-05
8.34703e-05
-3.66371e-05
9.33369e-05
-5.49625e-05
8.90146e-05
-7.16955e-05
8.18102e-05
-8.64379e-05
7.25953e-05
-9.88919e-05
6.17443e-05
-0.000108845
4.9605e-05
-0.000116151
3.6495e-05
-0.000120715
2.26947e-05
-0.000122475
8.45138e-06
-0.000121391
-6.01375e-06
-0.000117447
-2.04726e-05
-0.000110652
-3.46925e-05
-0.000101051
-4.84007e-05
-8.87488e-05
-6.12754e-05
-7.3928e-05
-7.29396e-05
-5.6879e-05
-8.29678e-05
-3.80205e-05
-9.08917e-05
-1.802e-05
-9.5716e-05
-8.58476e-05
-1.96409e-05
0.000103111
-4.14808e-05
0.000115177
-6.21075e-05
0.000109641
-8.08266e-05
0.000100529
-9.72091e-05
8.89777e-05
-0.000110961
7.54963e-05
-0.000121896
6.05396e-05
-0.000129902
4.45013e-05
-0.000134916
2.77084e-05
-0.000136895
1.04311e-05
-0.000135806
-7.10366e-06
-0.000131614
-2.46643e-05
-0.000124295
-4.20117e-05
-0.000113847
-5.88488e-05
-0.00010032
-7.48015e-05
-8.38572e-05
-8.94029e-05
-6.47298e-05
-0.000102095
-4.33868e-05
-0.000112235
-2.06021e-05
-0.000118501
-0.00010645
-2.25993e-05
0.00012571
-4.76393e-05
0.000140217
-7.11284e-05
0.00013313
-9.22619e-05
0.000121663
-0.000110585
0.000107301
-0.000125831
9.07419e-05
-0.000137866
7.25747e-05
-0.000146642
5.32777e-05
-0.000152151
3.32171e-05
-0.000154387
1.26667e-05
-0.000153323
-8.16736e-06
-0.000148905
-2.90822e-05
-0.000141057
-4.98599e-05
-0.000129701
-7.02047e-05
-0.0001148
-8.97029e-05
-9.64106e-05
-0.000107792
-7.47566e-05
-0.000123749
-5.03012e-05
-0.00013669
-2.39507e-05
-0.000144851
-0.0001304
-2.63778e-05
0.000152088
-5.54483e-05
0.000169287
-8.24551e-05
0.000160137
-0.000106461
0.000145669
-0.000127007
0.000127847
-0.000143893
0.000107628
-0.000157088
8.57699e-05
-0.000166652
6.28417e-05
-0.000172667
3.92313e-05
-0.000175185
1.5185e-05
-0.000174201
-9.15109e-06
-0.000169629
-3.36541e-05
-0.00016132
-5.8169e-05
-0.000149081
-8.2444e-05
-0.000132729
-0.000106055
-0.000112173
-0.000128348
-8.75216e-05
-0.000148401
-5.92138e-05
-0.000164998
-2.83086e-05
-0.000175756
-0.000158709
-3.12493e-05
0.000183338
-6.54071e-05
0.000203445
-9.67032e-05
0.000191433
-0.000124055
0.000173021
-0.000147049
0.000150842
-0.000165628
0.000126206
-0.000179941
0.000100083
-0.000190222
7.31226e-05
-0.000196694
4.57037e-05
-0.000199504
1.79948e-05
-0.000198681
-9.97357e-06
-0.000194102
-3.82329e-05
-0.000185514
-6.67569e-05
-0.000172555
-9.54034e-05
-0.000154816
-0.000123794
-0.000131952
-0.000151212
-0.000103842
-0.000176511
-7.08084e-05
-0.000198031
-3.40615e-05
-0.000212503
-0.00019277
-3.76522e-05
0.00022099
-7.82772e-05
0.00024407
-0.000114769
0.000227926
-0.000145917
0.000204168
-0.00017146
0.000176385
-0.000191615
0.000146362
-0.000206833
0.000115301
-0.000217619
8.3909e-05
-0.00022441
5.24945e-05
-0.000227488
2.10723e-05
-0.00022694
-1.05211e-05
-0.000222606
-4.25672e-05
-0.000214094
-7.52686e-05
-0.0002008
-0.000108698
-0.000181978
-0.000142616
-0.000156869
-0.000176321
-0.000124923
-0.000208456
-8.61529e-05
-0.000236802
-4.18533e-05
-0.000256803
-0.000234624
-4.63274e-05
0.000267317
-9.52532e-05
0.000292996
-0.000137984
0.000270656
-0.000173262
0.000239446
-0.000201211
0.000204333
-0.000222541
0.000167692
-0.000238182
0.000130942
-0.000249046
9.47732e-05
-0.000255877
5.93255e-05
-0.000259148
2.43436e-05
-0.000259026
-1.0643e-05
-0.00025532
-4.6273e-05
-0.000247479
-8.31098e-05
-0.000234582
-0.000121595
-0.000215385
-0.000161813
-0.000188484
-0.000203222
-0.000152576
-0.000244364
-0.000106966
-0.000282412
-5.28303e-05
-0.000310938
-0.000287454
-5.8616e-05
0.000325933
-0.000118267
0.000352647
-0.000168349
0.000320738
-0.000207795
0.000278892
-0.000237555
0.000234093
-0.000259177
0.000189314
-0.000274343
0.000146108
-0.000284557
0.000104988
-0.000290961
6.57295e-05
-0.000294273
2.76552e-05
-0.000294764
-1.01521e-05
-0.000292234
-4.88034e-05
-0.000285966
-8.93777e-05
-0.000274677
-0.000132884
-0.000256481
-0.000180009
-0.000228962
-0.000230741
-0.000189552
-0.000283774
-0.000136102
-0.000335862
-6.92551e-05
-0.000377785
-0.000356709
-7.71595e-05
0.000403093
-0.000150534
0.000426021
-0.000208914
0.000379118
-0.000251893
0.000321871
-0.00028203
0.00026423
-0.000302297
0.000209582
-0.000315525
0.000159336
-0.000323966
0.000113429
-0.000329229
7.09924e-05
-0.000332311
3.07374e-05
-0.000333623
-8.8403e-06
-0.000332991
-4.94351e-05
-0.000329577
-9.27921e-05
-0.000321744
-0.000140717
-0.000306875
-0.000194878
-0.000281223
-0.000256393
-0.000240036
-0.000324961
-0.000178382
-0.000397516
-9.55359e-05
-0.000460632
-0.000452245
-0.000106832
0.000509925
-0.000197421
0.000516609
-0.000264306
0.000446003
-0.000308752
0.000366318
-0.000336383
0.000291861
-0.00035257
0.000225769
-0.000361631
0.000168397
-0.000366679
0.000118476
-0.000369792
7.41055e-05
-0.000372227
3.31731e-05
-0.000374551
-6.51668e-06
-0.000376685
-4.73005e-05
-0.000377796
-9.16815e-05
-0.000376045
-0.000142469
-0.000368163
-0.000202759
-0.000348877
-0.000275678
-0.000310345
-0.000363494
-0.000242071
-0.00046579
-0.000140193
-0.00056251
-0.000592438
-0.000159632
0.000669557
-0.000268776
0.000625753
-0.000341548
0.000518775
-0.000382366
0.000407136
-0.000402383
0.000311877
-0.000410227
0.000233614
-0.00041196
0.00017013
-0.000411476
0.000117991
-0.000411168
7.37977e-05
-0.000412395
3.44001e-05
-0.000415832
-3.07965e-06
-0.000421596
-4.15366e-05
-0.000429144
-8.41328e-05
-0.000436861
-0.000134752
-0.000441284
-0.000198337
-0.000435855
-0.000281107
-0.000409136
-0.000390213
-0.000340808
-0.000534119
-0.000222246
-0.000681071
-0.000814684
-0.000236719
0.000906276
-0.000371703
0.000760738
-0.000448492
0.000595564
-0.0004769
0.000435544
-0.000480826
0.000315803
-0.000474087
0.000226875
-0.0004644
0.000160442
-0.000455907
0.000109499
-0.000450739
6.86291e-05
-0.000450018
3.36792e-05
-0.000454486
1.38817e-06
-0.00046447
-3.15524e-05
-0.000480144
-6.84589e-05
-0.000500892
-0.000114004
-0.000524423
-0.000174806
-0.000544241
-0.000261288
-0.000547308
-0.000387147
-0.000492926
-0.0005885
-0.000375119
-0.000798879
-0.0011898
-0.000481887
0.00138816
-0.000575339
0.00085419
-0.000602926
0.00062315
-0.000590765
0.000423383
-0.000560967
0.000286004
-0.000529723
0.000195631
-0.000503191
0.00013391
-0.000483593
8.99005e-05
-0.000471731
5.67667e-05
-0.000467944
2.98926e-05
-0.000472289
5.73268e-06
-0.00048618
-1.76609e-05
-0.000510424
-4.4215e-05
-0.000546588
-7.78393e-05
-0.000596406
-0.000124988
-0.000657847
-0.000199847
-0.000723794
-0.0003212
-0.000731737
-0.000580557
-0.000638561
-0.000892055
-0.00182836
-0.000679082
0.00206725
-0.000659723
0.000834831
-0.000578817
0.000542245
-0.000474773
0.000319339
-0.000377743
0.000188974
-0.000302124
0.000120012
-0.00024703
7.88165e-05
-0.00020902
5.18905e-05
-0.000185309
3.30556e-05
-0.000174096
1.86795e-05
-0.000174741
6.37791e-06
-0.000186951
-5.45034e-06
-0.000212355
-1.88109e-05
-0.000252443
-3.77514e-05
-0.000308887
-6.85439e-05
-0.000379603
-0.000129132
-0.000457671
-0.000243132
-0.000520916
-0.000517311
-0.000478072
-0.000934899
-0.00230644
0.00206725
0.00290208
0.00344432
0.00376366
0.00395263
0.00407265
0.00415146
0.00420335
0.00423641
0.00425509
0.00426147
0.00425602
0.0042372
0.00419945
0.00413091
0.00400178
0.00375865
0.00324133
0.00230644
)
;

boundaryField
{
    movingWall
    {
        type            calculated;
        value           uniform 0;
    }
    fixedWalls
    {
        type            calculated;
        value           uniform 0;
    }
    frontAndBack
    {
        type            empty;
        value           nonuniform List<scalar> 0();
    }
}


// ************************************************************************* //
