/*--------------------------------*- C++ -*----------------------------------*\
  =========                 |
  \\      /  F ield         | OpenFOAM: The Open Source CFD Toolbox
   \\    /   O peration     | Website:  https://openfoam.org
    \\  /    A nd           | Version:  10
     \\/     M anipulation  |
\*---------------------------------------------------------------------------*/
FoamFile
{
    format      ascii;
    class       volVectorField;
    location    "9.4";
    object      U;
}
// * * * * * * * * * * * * * * * * * * * * * * * * * * * * * * * * * * * * * //

dimensions      [0 1 -1 0 0 0 0];

internalField   nonuniform List<vector> 
400
(
(-0.000170128 0.000146129 0)
(-0.00128427 0.00047225 0)
(-0.0031739 0.000590928 0)
(-0.00512141 0.000632434 0)
(-0.00715311 0.000658107 0)
(-0.00923263 0.000687608 0)
(-0.011351 0.000720203 0)
(-0.0134879 0.000747261 0)
(-0.0155944 0.000755817 0)
(-0.0175846 0.000728067 0)
(-0.0193265 0.00064141 0)
(-0.0206335 0.000470961 0)
(-0.0212671 0.000195799 0)
(-0.0209485 -0.000204603 0)
(-0.0194142 -0.000706984 0)
(-0.0165163 -0.00123773 0)
(-0.0123855 -0.00165099 0)
(-0.00759447 -0.00175369 0)
(-0.002709 -0.00136959 0)
(-0.000141526 -0.000349148 0)
(-0.000564043 0.00131396 0)
(-0.00293369 0.00274433 0)
(-0.00657099 0.00328761 0)
(-0.0103245 0.00348551 0)
(-0.0142011 0.00357618 0)
(-0.0181114 0.00363716 0)
(-0.0220067 0.00366756 0)
(-0.0258236 0.00363314 0)
(-0.0294573 0.00348109 0)
(-0.0327484 0.00314219 0)
(-0.0354713 0.0025345 0)
(-0.0373267 0.00157183 0)
(-0.0379644 0.000180858 0)
(-0.0369839 -0.00165341 0)
(-0.0340121 -0.0038154 0)
(-0.0288646 -0.00600201 0)
(-0.0217675 -0.00765988 0)
(-0.0135981 -0.00805344 0)
(-0.00530362 -0.00651736 0)
(-0.000611594 -0.00245624 0)
(-0.000744749 0.00343966 0)
(-0.00371847 0.00649166 0)
(-0.00819132 0.00765081 0)
(-0.012776 0.00806237 0)
(-0.0174812 0.00821244 0)
(-0.0221977 0.00825891 0)
(-0.0268654 0.00820403 0)
(-0.0314118 0.00798244 0)
(-0.0357219 0.00749104 0)
(-0.0396227 0.00659553 0)
(-0.0428695 0.00513811 0)
(-0.0451386 0.00295619 0)
(-0.0460187 -8.09898e-05 0)
(-0.0450108 -0.00398283 0)
(-0.0416124 -0.0085489 0)
(-0.0354821 -0.0131764 0)
(-0.0267531 -0.0167319 0)
(-0.0164812 -0.0175918 0)
(-0.00606828 -0.0142858 0)
(-0.000523791 -0.00576624 0)
(-0.000805853 0.00573017 0)
(-0.00403419 0.0105302 0)
(-0.00887811 0.0123251 0)
(-0.0138256 0.0129392 0)
(-0.0189013 0.0131374 0)
(-0.0239994 0.0131655 0)
(-0.0290731 0.0130322 0)
(-0.0340687 0.0126446 0)
(-0.0388942 0.0118523 0)
(-0.0434008 0.0104549 0)
(-0.0473586 0.00820752 0)
(-0.050433 0.00484531 0)
(-0.0521573 0.000143936 0)
(-0.051911 -0.00598076 0)
(-0.0489303 -0.0133245 0)
(-0.0424731 -0.0210168 0)
(-0.0322678 -0.0271938 0)
(-0.0194174 -0.0288279 0)
(-0.00620222 -0.0230316 0)
(-2.07482e-05 -0.00881073 0)
(-0.000806938 0.00811942 0)
(-0.00411111 0.0147643 0)
(-0.00909836 0.0172277 0)
(-0.0141977 0.0180606 0)
(-0.0194534 0.0183306 0)
(-0.0247771 0.0183824 0)
(-0.0301531 0.0182383 0)
(-0.0355682 0.0177847 0)
(-0.0409803 0.0168283 0)
(-0.0462971 0.0151009 0)
(-0.0513398 0.0122551 0)
(-0.0557902 0.00787867 0)
(-0.0591321 0.00156114 0)
(-0.0606036 -0.00698264 0)
(-0.0590744 -0.0177146 0)
(-0.0530994 -0.0296365 0)
(-0.0414176 -0.0400041 0)
(-0.0246319 -0.0433971 0)
(-0.00644791 -0.0338309 0)
(0.000890368 -0.0115602 0)
(-0.000779306 0.0105063 0)
(-0.00407021 0.0190526 0)
(-0.00908919 0.0222172 0)
(-0.0142421 0.0232978 0)
(-0.0195911 0.0236849 0)
(-0.025074 0.0238365 0)
(-0.0307185 0.0238012 0)
(-0.0365701 0.0234576 0)
(-0.0426633 0.0225814 0)
(-0.0490009 0.0208416 0)
(-0.0555098 0.0177786 0)
(-0.0619634 0.0127916 0)
(-0.0678867 0.00517057 0)
(-0.0724802 -0.00578008 0)
(-0.0742336 -0.020449 0)
(-0.0705651 -0.0382792 0)
(-0.0580547 -0.0558307 0)
(-0.0355004 -0.0636279 0)
(-0.00845934 -0.0484654 0)
(0.00214295 -0.0139564 0)
(-0.000735104 0.0128356 0)
(-0.00396248 0.0233148 0)
(-0.00894841 0.027212 0)
(-0.0140917 0.0285737 0)
(-0.0194693 0.0291322 0)
(-0.0250478 0.0294757 0)
(-0.0309058 0.0296979 0)
(-0.0371632 0.0296918 0)
(-0.0439588 0.0292274 0)
(-0.0514383 0.0279357 0)
(-0.0597205 0.025263 0)
(-0.0688255 0.0204211 0)
(-0.078565 0.0123498 0)
(-0.0883327 -0.000275985 0)
(-0.0964527 -0.0189508 0)
(-0.0985222 -0.0449101 0)
(-0.0868202 -0.0749693 0)
(-0.0572084 -0.0929294 0)
(-0.0174219 -0.0710343 0)
(0.00283144 -0.0176602 0)
(-0.000677782 0.0150741 0)
(-0.00380515 0.0275025 0)
(-0.00870711 0.0321577 0)
(-0.0137784 0.0338266 0)
(-0.0191051 0.0346023 0)
(-0.0246803 0.0352245 0)
(-0.0306335 0.0358552 0)
(-0.0371661 0.0364334 0)
(-0.0445436 0.0367678 0)
(-0.0531051 0.0365151 0)
(-0.063262 0.0351111 0)
(-0.0754883 0.0316868 0)
(-0.0902817 0.0249364 0)
(-0.107824 0.0126376 0)
(-0.126315 -0.00934409 0)
(-0.137739 -0.0463768 0)
(-0.128229 -0.0969737 0)
(-0.093475 -0.133244 0)
(-0.0430765 -0.108082 0)
(-0.000203894 -0.02882 0)
(-0.000609658 0.0171945 0)
(-0.00360825 0.0315751 0)
(-0.00837935 0.0369991 0)
(-0.0133062 0.0389795 0)
(-0.0184757 0.0399908 0)
(-0.023899 0.0409474 0)
(-0.0297476 0.042107 0)
(-0.0362963 0.043493 0)
(-0.0439346 0.0450158 0)
(-0.0532171 0.0464623 0)
(-0.0649309 0.0474358 0)
(-0.0801976 0.0472579 0)
(-0.100618 0.0446113 0)
(-0.12751 0.035812 0)
(-0.157623 0.0115652 0)
(-0.177615 -0.0414389 0)
(-0.170992 -0.120429 0)
(-0.139403 -0.179634 0)
(-0.0880746 -0.163195 0)
(-0.0124317 -0.0588119 0)
(-0.000536516 0.0191768 0)
(-0.00339141 0.0354993 0)
(-0.00799341 0.0416783 0)
(-0.0126958 0.0439389 0)
(-0.0175779 0.0451565 0)
(-0.0226535 0.0464439 0)
(-0.0281154 0.0481804 0)
(-0.034283 0.0505147 0)
(-0.04163 0.0535312 0)
(-0.0508738 0.0572813 0)
(-0.0631073 0.0617709 0)
(-0.0799703 0.0667921 0)
(-0.103901 0.0709022 0)
(-0.136674 0.0676119 0)
(-0.172902 0.0398405 0)
(-0.195073 -0.0321737 0)
(-0.191809 -0.139191 0)
(-0.171265 -0.22252 0)
(-0.128157 -0.233572 0)
(-0.0343523 -0.123409 0)
(-0.000470494 0.0210182 0)
(-0.0031941 0.0392554 0)
(-0.00761053 0.0461327 0)
(-0.0120128 0.0485871 0)
(-0.0164668 0.0499143 0)
(-0.0209688 0.0514419 0)
(-0.0257017 0.0536831 0)
(-0.0309747 0.0569339 0)
(-0.0372513 0.061501 0)
(-0.0452505 0.0677969 0)
(-0.0560977 0.0763752 0)
(-0.0713832 0.0874971 0)
(-0.093061 0.0988278 0)
(-0.122225 0.099739 0)
(-0.15245 0.0668111 0)
(-0.169278 -0.0202923 0)
(-0.169342 -0.14564 0)
(-0.159275 -0.253481 0)
(-0.133886 -0.306194 0)
(-0.0497298 -0.226247 0)
(-0.000436678 0.0227586 0)
(-0.00309501 0.0428895 0)
(-0.00735012 0.0503746 0)
(-0.0113904 0.0528788 0)
(-0.015282 0.0541349 0)
(-0.0189887 0.0556983 0)
(-0.0226528 0.0582115 0)
(-0.0265076 0.0621 0)
(-0.0308814 0.0678662 0)
(-0.0362493 0.0762236 0)
(-0.0432964 0.0881066 0)
(-0.0528115 0.103855 0)
(-0.0653946 0.119831 0)
(-0.0816015 0.122053 0)
(-0.0973373 0.0850076 0)
(-0.105515 -0.0100939 0)
(-0.109197 -0.140063 0)
(-0.110025 -0.261374 0)
(-0.110384 -0.350139 0)
(-0.0441395 -0.322103 0)
(-0.000466372 0.0244513 0)
(-0.00318261 0.0463537 0)
(-0.00736255 0.0541944 0)
(-0.0110314 0.0564916 0)
(-0.0142747 0.0574426 0)
(-0.0170116 0.058784 0)
(-0.0193397 0.0612248 0)
(-0.0213798 0.0652541 0)
(-0.0232493 0.071448 0)
(-0.0250521 0.0805915 0)
(-0.0268462 0.0936285 0)
(-0.0284661 0.110649 0)
(-0.0294989 0.12752 0)
(-0.0303494 0.12941 0)
(-0.0315865 0.0921697 0)
(-0.0326581 -0.003702 0)
(-0.0427458 -0.126636 0)
(-0.0551649 -0.24827 0)
(-0.0797095 -0.363719 0)
(-0.0302261 -0.386502 0)
(-0.000670855 0.026435 0)
(-0.00376696 0.0503104 0)
(-0.00800781 0.0584235 0)
(-0.0112188 0.0602867 0)
(-0.0136796 0.0605212 0)
(-0.0153316 0.0611305 0)
(-0.0162143 0.062904 0)
(-0.016322 0.0663393 0)
(-0.0155803 0.0719653 0)
(-0.0137551 0.0804269 0)
(-0.0104159 0.0924106 0)
(-0.00467947 0.107705 0)
(0.00412382 0.122727 0)
(0.0161685 0.124052 0)
(0.0245899 0.0904037 0)
(0.0294067 0.00282894 0)
(0.0118536 -0.10852 0)
(-0.0100123 -0.222072 0)
(-0.055565 -0.360766 0)
(-0.0198671 -0.433803 0)
(-0.00101119 0.0289024 0)
(-0.00452437 0.0534283 0)
(-0.00918533 0.0607404 0)
(-0.0122336 0.0613916 0)
(-0.0141384 0.06078 0)
(-0.0147406 0.0607368 0)
(-0.0141534 0.0618645 0)
(-0.0123462 0.0644835 0)
(-0.00915849 0.0689655 0)
(-0.00418551 0.0756867 0)
(0.00320006 0.0850867 0)
(0.0142426 0.0966248 0)
(0.0291986 0.10751 0)
(0.048624 0.107672 0)
(0.0629778 0.0802912 0)
(0.0719134 0.00964576 0)
(0.0494667 -0.0847322 0)
(0.0255548 -0.184138 0)
(-0.0382574 -0.34291 0)
(-0.009169 -0.466186 0)
(-0.00309785 0.0308397 0)
(-0.00897664 0.0601158 0)
(-0.0129168 0.0672693 0)
(-0.0148382 0.0672466 0)
(-0.0152544 0.0647614 0)
(-0.0145022 0.0627156 0)
(-0.0125616 0.0618259 0)
(-0.009248 0.0623924 0)
(-0.00429661 0.0646402 0)
(0.00288239 0.0686799 0)
(0.0128429 0.0747174 0)
(0.0266216 0.0819941 0)
(0.0439124 0.0883259 0)
(0.0659189 0.0869859 0)
(0.0818534 0.0672217 0)
(0.0938414 0.0159982 0)
(0.0695439 -0.0564467 0)
(0.0466985 -0.141196 0)
(-0.027814 -0.322347 0)
(0.00210568 -0.489884 0)
(-0.00091502 0.0440844 0)
(-0.00737043 0.0612347 0)
(-0.0163569 0.064038 0)
(-0.0181925 0.0603549 0)
(-0.0188367 0.0573374 0)
(-0.0172171 0.0553501 0)
(-0.0140784 0.054402 0)
(-0.00927711 0.0543871 0)
(-0.00267257 0.0553784 0)
(0.00630982 0.0573887 0)
(0.0180377 0.0605577 0)
(0.0332105 0.0642372 0)
(0.050848 0.0670821 0)
(0.0730388 0.064859 0)
(0.0879827 0.0515073 0)
(0.101699 0.018349 0)
(0.0777907 -0.0329222 0)
(0.0620687 -0.102083 0)
(-0.0104103 -0.300073 0)
(0.0205542 -0.499695 0)
(-0.0125771 0.0321671 0)
(-0.0229727 0.0806341 0)
(-0.0204366 0.080952 0)
(-0.0241395 0.0760622 0)
(-0.0233712 0.0686364 0)
(-0.0207797 0.0625177 0)
(-0.0160762 0.0576801 0)
(-0.00942376 0.0540156 0)
(-0.00088732 0.051527 0)
(0.00996307 0.049989 0)
(0.0230103 0.0495042 0)
(0.0389137 0.049389 0)
(0.0557257 0.0498527 0)
(0.0767405 0.0478647 0)
(0.0890302 0.0417792 0)
(0.105653 0.0252286 0)
(0.0886094 -0.00636061 0)
(0.0974575 -0.0630586 0)
(0.0389609 -0.272675 0)
(0.0568485 -0.488438 0)
(-0.0776927 0.0957406 0)
(-0.0632216 0.0587296 0)
(-0.0650024 0.0600505 0)
(-0.0421875 0.053451 0)
(-0.0241305 0.0464617 0)
(-0.00323338 0.0412875 0)
(0.0164943 0.0375243 0)
(0.0366403 0.0343465 0)
(0.0553613 0.0320578 0)
(0.0757801 0.0299961 0)
(0.0935559 0.0288541 0)
(0.116233 0.0276829 0)
(0.131991 0.0268736 0)
(0.160369 0.0254552 0)
(0.169565 0.0198469 0)
(0.20239 0.0108677 0)
(0.18929 -0.0215881 0)
(0.221348 -0.0734691 0)
(0.153625 -0.25147 0)
(0.124556 -0.43266 0)
(0.119335 0.14071 0)
(0.151839 0.0859804 0)
(0.228245 0.0634262 0)
(0.283729 0.0479957 0)
(0.325207 0.0373922 0)
(0.36356 0.0296496 0)
(0.392346 0.0242569 0)
(0.423601 0.0201948 0)
(0.443641 0.0173192 0)
(0.472241 0.0150031 0)
(0.485189 0.0133219 0)
(0.514531 0.0119322 0)
(0.520063 0.0108176 0)
(0.552105 0.00947173 0)
(0.546847 0.00745821 0)
(0.578488 0.00298608 0)
(0.546502 -0.00581824 0)
(0.552146 -0.0268188 0)
(0.419199 -0.0729477 0)
(0.27476 -0.151594 0)
)
;

boundaryField
{
    movingWall
    {
        type            fixedValue;
        value           uniform (1 0 0);
    }
    fixedWalls
    {
        type            noSlip;
    }
    frontAndBack
    {
        type            empty;
    }
}


// ************************************************************************* //
