/*--------------------------------*- C++ -*----------------------------------*\
  =========                 |
  \\      /  F ield         | OpenFOAM: The Open Source CFD Toolbox
   \\    /   O peration     | Website:  https://openfoam.org
    \\  /    A nd           | Version:  10
     \\/     M anipulation  |
\*---------------------------------------------------------------------------*/
FoamFile
{
    format      ascii;
    class       surfaceScalarField;
    location    "5.625";
    object      phi;
}
// * * * * * * * * * * * * * * * * * * * * * * * * * * * * * * * * * * * * * //

dimensions      [0 3 -1 0 0 0 0];

internalField   nonuniform List<scalar> 
928
(
0.0956766
0.00432341
0.103331
-0.00765436
0.10662
-0.00328877
-0.00974084
0.116361
0.0948146
0.00950886
0.106063
-0.0189025
0.103122
-0.000347571
-0.0197706
0.113151
0.0960541
0.0134548
0.110057
-0.0329051
0.104692
0.00501664
-0.041523
0.126445
0.103013
0.0104414
0.0924021
-0.0222938
0.0977956
-0.000376886
0.146339
-0.0900665
0.111282
0.00507849
-0.0165475
0.12783
0.110001
0.00822859
-0.04211
0.135564
0.128697
0.00597627
-0.049107
0.135694
0.152315
0.103208
0.128057
-0.000227547
0.127997
6.02739e-05
0.12971
-0.001713
-0.00109924
0.130809
0.136737
-0.00140062
0.136386
0.000411606
0.136513
-0.0018401
-0.00150698
0.13692
0.137759
-0.00346541
0.140518
-0.00234725
0.14187
-0.00319204
-0.000392541
0.140755
0.111243
-0.0114995
0.0903186
0.0185767
0.0947753
-0.00764877
0.0950591
-0.000676334
0.13223
-0.00142046
0.132563
-0.000333774
0.132735
-0.000171799
0.131668
0.00106757
0.13061
0.00105749
0.129651
0.000958808
0.128399
0.00125261
0.127841
0.000557526
0.126208
0.00163301
0.12473
0.00147837
0.122086
0.00264341
0.119937
0.00214957
0.117511
0.00242611
0.115311
0.00219945
0.113959
0.0013518
0.112371
0.00158803
0.112041
0.000330645
0.111155
0.000885633
0.111803
-0.00064773
0.112043
-0.000240044
0.112794
-0.000751253
0.11307
-0.000275792
0.112496
0.000573578
0.11207
0.000426485
0.110459
0.00161095
0.109631
0.000827858
0.108011
0.00162024
0.107415
0.000595468
0.106768
0.000647077
0.106439
0.000329225
0.106319
0.00011983
0.105435
0.000883881
0.104613
0.000822577
0.102033
0.00258006
0.0992261
0.00280662
0.0951792
0.00404681
0.0915128
0.00366639
0.0884714
0.00304143
0.0859989
0.00247248
0.000279705
0.138449
-0.00294916
0.138407
-0.000291243
0.138282
-4.67143e-05
0.138393
0.000956082
0.1377
0.0017507
0.137381
0.00127773
0.136679
0.00195406
0.136743
0.000494023
0.134833
0.00354251
0.133802
0.00250946
0.131861
0.00458464
0.130408
0.00360218
0.12868
0.00415427
0.12685
0.00402976
0.126025
0.00217677
0.124173
0.00343967
0.124491
1.28542e-05
0.1241
0.0012765
0.124982
-0.00152955
0.126188
-0.00144635
0.126575
-0.00113785
0.127967
-0.00166753
0.127081
0.00145983
0.12756
-5.29623e-05
0.126128
0.00304261
0.125718
0.00123853
0.12488
0.00245786
0.123916
0.00155988
0.124159
0.000404111
0.123382
0.00110542
0.124534
-0.00103197
0.12346
0.00195808
0.123161
0.00112198
0.121052
0.00468835
0.118766
0.00509284
0.116564
0.00624868
0.113277
0.00695397
0.111317
0.00500147
0.10759
0.00619863
0.00211213
0.137908
-0.000101878
0.13716
0.00045651
0.137714
-0.000600838
0.137744
0.000926185
0.137548
0.00194676
0.138268
0.000557969
0.13901
0.00121193
0.137168
0.00233586
0.136625
0.00408572
0.136272
0.00286277
0.136328
0.00452859
0.13564
0.00428972
0.134748
0.00504646
0.134111
0.00466659
0.132976
0.00331162
0.13296
0.00345557
0.131702
0.00127159
0.131485
0.00149289
0.131371
-0.00141553
0.131067
-0.00114171
0.131017
-0.00108811
0.131024
-0.00167507
0.130982
0.00150229
0.13147
-0.000541431
0.130634
0.00387864
0.130655
0.00121816
0.130307
0.00280552
0.13001
0.00185651
0.130097
0.000317791
0.130161
0.00104093
0.131494
-0.00236515
0.132372
0.00108009
0.133997
-0.000502335
0.134754
0.00393142
0.134467
0.00537966
0.132895
0.00782105
0.128747
0.0111016
0.124318
0.00943021
0.118363
0.0121538
0.00616491
0.0923438
0.00261349
0.0920717
0.000728549
0.0971811
-0.00571023
0.0946338
0.00347347
0.0904145
0.00616614
0.096136
-0.00516354
0.0955443
0.00180365
0.0938904
0.0039897
0.0963014
0.00167475
0.0979369
0.00122726
0.100697
0.00176884
0.101948
0.00303831
0.102793
0.00420163
0.102621
0.00483862
0.100132
0.00580037
0.0966946
0.00689304
0.0924498
0.00551641
0.0894592
0.00448353
0.0853286
0.00271507
0.0829405
0.0012464
0.081894
-4.16394e-05
0.0820537
-0.00183476
0.084513
-0.000957038
0.0845539
-0.000582277
0.0878682
0.00056427
0.0883612
0.000725186
0.0893013
0.00186547
0.0902604
0.000897345
0.0910505
-0.000472293
0.0935797
-0.00148821
0.0953948
-0.00418026
0.100953
-0.00447846
0.105381
-0.00493045
0.111675
-0.00236229
0.116874
0.000180319
0.121156
0.00353992
0.12594
0.00631771
0.12883
0.0065393
0.131819
0.00916513
0.00629571
0.110973
-0.000531368
0.0886128
6.61813e-05
0.0895892
-0.00135334
-0.000477291
0.109313
-0.00984466
0.0883358
0.0210436
0.0863453
0.000637159
0.085868
-0.00569384
-0.00580565
-0.0305001
0.043383
-0.0202198
-0.0179291
-0.0301639
0.00926781
-0.0131388
0.00733311
0.0153888
0.0148554
0.0135203
-0.0160607
-0.00946151
-0.0071821
-0.011827
0.0237083
-0.00934387
-0.00175455
0.00426945
-0.0193235
-0.00271359
0.0104565
-0.00769578
0.0111483
-0.000140366
-0.0127189
0.00487755
-0.00321426
0.0074587
0.00140855
0.00750226
0.00163119
0.0104329
-0.00170334
0.0143194
-0.00211771
0.0178332
-0.000475535
0.0204726
0.00156227
0.0219122
0.00339901
0.0226322
0.00508033
0.0219639
0.00756137
0.0210437
0.00643659
0.020974
0.00455327
0.0209739
0.00271518
0.0209394
0.00128089
0.0221835
-0.0012857
0.023127
-0.00277827
0.0246061
-0.00243616
0.0272335
-0.00320971
0.0295725
-0.00177473
0.0318089
-0.00151122
0.0350103
-0.00133592
0.0379074
-0.00199973
0.0408646
-0.00342948
0.0452906
-0.00591429
0.0501989
-0.00908856
0.0554133
-0.00969284
0.0621008
-0.0116179
0.0677028
-0.00796432
0.0729789
-0.00509579
0.0773567
-0.000837887
0.0781939
0.00548054
0.0790526
0.00568061
0.075975
0.0122427
0.00941756
0.000261314
0.0139854
0.00352895
-0.00502219
-0.0112996
-0.00449504
-0.0077939
0.00695086
0.00576798
-0.00241354
-0.000980454
-0.00597052
-0.00170611
-0.00248861
0.0037261
-0.00402366
0.00844149
-0.0030842
0.0125147
-0.00577658
0.0147546
-0.00435754
0.0169197
-0.00264069
0.019276
-0.000794004
0.0215708
0.00110422
0.0247832
0.00186794
0.0288804
0.00346417
0.0320903
0.00322666
0.0336647
0.0029789
0.0350365
0.00134337
0.0364873
-0.000169884
0.037339
-0.00213745
0.0373221
-0.0027614
0.0378802
-0.00299419
0.0395523
-0.00488182
0.0408633
-0.00308572
0.0427929
-0.00344086
0.0451134
-0.00365647
0.0464155
-0.00330177
0.0478101
-0.00482412
0.0480518
-0.00615594
0.0472298
-0.00826662
0.0470477
-0.00951065
0.0464178
-0.0109881
0.0472763
-0.00882277
0.0489518
-0.00677128
0.0507041
-0.00259018
0.0538342
0.0023504
0.0561889
0.00332596
0.0593311
0.00910048
0.00636299
0.101912
-0.0117564
0.0940181
0.0289373
0.0976738
-0.00301859
0.0388195
0.144722
0.0959427
-0.00769902
0.10754
0.0173402
0.103908
0.000613379
0.0193633
0.123364
0.0955518
-0.00325087
0.106045
0.00684668
0.103519
0.00313956
0.00980874
0.113074
0.0967491
0.103596
0.106735
0.116544
0.152822
-0.00809918
0.0455573
0.107264
0.124557
-0.00929217
0.042354
0.12776
0.109152
-0.00537001
0.0171713
0.134334
0.111174
0.128345
0.109318
0.00527976
0.113262
0.0109111
0.100295
-0.00309429
-0.000472913
0.0935863
0.132967
7.33793e-05
0.141018
0.00286012
0.134597
0.0033262
0.0014834
0.132641
0.134258
0.000149634
0.135856
0.00126252
0.137686
0.0014954
0.00138902
0.137781
0.128495
0.129757
0.131253
0.132642
0.104869
0.00270243
0.0976409
0.00220617
0.0937723
-0.000626362
0.0996617
0.00106143
0.0982877
-0.00103958
0.0958509
-0.0035337
0.0969033
-0.003541
0.0972188
-0.00433913
0.0972769
-0.00314234
0.0950929
-0.00359255
0.0929934
-0.00225805
0.0925156
-0.00216292
0.0928115
-0.00108981
0.0939537
-3.80232e-05
0.0956541
0.000167507
0.0975767
0.00154155
0.101774
-0.000970246
0.105247
-0.00049406
0.110711
-0.0041209
0.1139
-0.00335901
0.117788
-0.0060255
0.120742
-0.00571585
0.123539
-0.00579118
0.124675
-0.00601764
0.125539
-0.0039497
0.126646
-0.00454754
0.125346
-0.00235673
0.125723
-0.00367901
0.123999
-0.00309993
0.120015
-0.00217138
0.114339
-0.00259134
0.104169
0.000660104
0.0942912
-0.00111061
0.0835118
0.00195658
0.0767743
-3.37807e-05
0.0729118
0.00127229
0.0722719
0.00299035
0.0745658
0.00103201
0.0793034
0.00436297
0.000580973
0.134814
0.000529487
0.135701
0.00131842
0.135254
-0.000178862
0.137239
-0.00092376
0.137298
-0.00109879
0.136133
-0.00236816
0.134796
-0.00220376
0.134466
-0.00400923
0.13365
-0.0023267
0.133251
-0.00319309
0.13202
-0.00102704
0.131604
-0.00174699
0.131248
-0.000734371
0.131477
-0.000266466
0.132527
-0.000882502
0.133028
0.00103988
0.133913
-0.00185488
0.134045
-0.000625791
0.13394
-0.00401653
0.133095
-0.00251356
0.130881
-0.00381191
0.128938
-0.00377255
0.1259
-0.00275363
0.124186
-0.00430354
0.121522
-0.00128538
0.12009
-0.00311577
0.118466
-0.000732412
0.116649
-0.00186251
0.115429
-0.00187989
0.114117
-0.000859044
0.114311
-0.00278544
0.114063
0.000907823
0.113714
-0.000761451
0.113616
0.00205494
0.112298
0.00128443
0.111594
0.00197643
0.112122
0.00246224
0.112365
0.000789077
0.115077
0.00165045
-0.00194759
0.137682
0.000627959
0.138652
0.000349151
0.138783
-0.000310166
0.138866
-0.00100642
0.138627
-0.000859688
0.137712
-0.0014539
0.136525
-0.00101625
0.134689
-0.00217296
0.133502
-0.00114014
0.132216
-0.00190725
0.131841
-0.000651585
0.130987
-0.000893401
0.130667
-0.000413909
0.130833
-0.000432406
0.130702
-0.00075225
0.131726
1.60143e-05
0.130955
-0.00108384
0.130829
-0.000499636
0.128883
-0.00207081
0.127774
-0.0014039
0.126099
-0.00213714
0.124352
-0.00202594
0.123153
-0.00155412
0.120867
-0.00201819
0.12022
-0.000638194
0.118778
-0.00167365
0.118427
-0.00038162
0.117739
-0.00117417
0.116924
-0.00106502
0.116588
-0.000522599
0.114938
-0.00113573
0.115466
0.000380085
0.115209
-0.000504388
0.116136
0.00112798
0.117271
0.000149229
0.118039
0.00120845
0.11985
0.000651363
0.12047
0.000168968
0.122107
1.26355e-05
-0.00201601
0.13327
0.133619
0.133309
0.132302
0.131443
0.129989
0.128973
0.1268
0.125659
0.123752
0.123101
0.122207
0.121793
0.121361
0.120609
0.120625
0.119541
0.119041
0.11697
0.115567
0.113429
0.111403
0.109849
0.107831
0.107193
0.105519
0.105138
0.103963
0.102898
0.102376
0.10124
0.10162
0.101116
0.102244
0.102393
0.103601
0.104253
0.104422
0.104434
)
;

boundaryField
{
    inlet
    {
        type            calculated;
        value           nonuniform List<scalar> 10(-0.1 -0.1 -0.1 -0.1 -0.1 -0.1 -0.1 -0.1 -0.1 -0.1);
    }
    outlet
    {
        type            calculated;
        value           nonuniform List<scalar> 10(0.0857192 0.105758 0.11431 0.131688 0.0728532 0.0623857 0.0850854 0.117606 0.122176 0.102418);
    }
    obstacle
    {
        type            calculated;
        value           uniform 0;
    }
    upperWall
    {
        type            calculated;
        value           uniform 0;
    }
    lowerWall
    {
        type            calculated;
        value           uniform 0;
    }
    frontAndBack
    {
        type            empty;
        value           nonuniform List<scalar> 0();
    }
}


// ************************************************************************* //
