/*--------------------------------*- C++ -*----------------------------------*\
  =========                 |
  \\      /  F ield         | OpenFOAM: The Open Source CFD Toolbox
   \\    /   O peration     | Website:  https://openfoam.org
    \\  /    A nd           | Version:  10
     \\/     M anipulation  |
\*---------------------------------------------------------------------------*/
FoamFile
{
    format      ascii;
    class       surfaceScalarField;
    location    "0.65";
    object      phi;
}
// * * * * * * * * * * * * * * * * * * * * * * * * * * * * * * * * * * * * * //

dimensions      [0 3 -1 0 0 0 0];

internalField   nonuniform List<scalar> 
760
(
-9.95366e-06
9.95366e-06
-2.10127e-05
1.1059e-05
-3.15797e-05
1.0567e-05
-4.13291e-05
9.74941e-06
-5.00178e-05
8.68871e-06
-5.74368e-05
7.41906e-06
-6.3413e-05
5.97615e-06
-6.78098e-05
4.39681e-06
-7.05277e-05
2.71788e-06
-7.15035e-05
9.75791e-07
-7.07101e-05
-7.93349e-07
-6.81572e-05
-2.55288e-06
-6.3892e-05
-4.26526e-06
-5.80008e-05
-5.8912e-06
-5.0611e-05
-7.38974e-06
-4.18922e-05
-8.7188e-06
-3.20555e-05
-9.83677e-06
-2.13522e-05
-1.07033e-05
-1.01235e-05
-1.12286e-05
-1.01236e-05
-1.15637e-05
2.15174e-05
-2.43231e-05
2.38184e-05
-3.651e-05
2.27539e-05
-4.77478e-05
2.09872e-05
-5.77554e-05
1.86964e-05
-6.62938e-05
1.59574e-05
-7.31661e-05
1.28485e-05
-7.82186e-05
9.44928e-06
-8.13396e-05
5.8389e-06
-8.24588e-05
2.09491e-06
-8.15457e-05
-1.70644e-06
-7.86112e-05
-5.48737e-06
-7.37078e-05
-9.16866e-06
-6.69321e-05
-1.26668e-05
-5.84277e-05
-1.58941e-05
-4.83868e-05
-1.87598e-05
-3.70505e-05
-2.1173e-05
-2.47091e-05
-2.30447e-05
-1.17571e-05
-2.41807e-05
-2.18806e-05
-1.21845e-05
3.37019e-05
-2.56263e-05
3.72603e-05
-3.84508e-05
3.55784e-05
-5.02614e-05
3.27977e-05
-6.07646e-05
2.91996e-05
-6.9714e-05
2.49068e-05
-7.69096e-05
2.00442e-05
-8.21975e-05
1.47371e-05
-8.54666e-05
9.10802e-06
-8.6647e-05
3.27536e-06
-8.57078e-05
-2.64567e-06
-8.26576e-05
-8.5376e-06
-7.75455e-05
-1.42807e-05
-7.04649e-05
-1.97474e-05
-6.15574e-05
-2.48017e-05
-5.10167e-05
-2.93005e-05
-3.90912e-05
-3.30986e-05
-2.60845e-05
-3.60513e-05
-1.24141e-05
-3.78511e-05
-3.42948e-05
-1.30744e-05
4.67762e-05
-2.74899e-05
5.16758e-05
-4.1222e-05
4.93105e-05
-5.38425e-05
4.54183e-05
-6.50409e-05
4.03979e-05
-7.4562e-05
3.4428e-05
-8.22045e-05
2.76867e-05
-8.78166e-05
2.03492e-05
-9.12908e-05
1.25822e-05
-9.25594e-05
4.54391e-06
-9.15906e-05
-3.61448e-06
-8.83892e-05
-1.1739e-05
-8.29977e-05
-1.96723e-05
-7.55015e-05
-2.72436e-05
-6.60362e-05
-3.4267e-05
-5.47942e-05
-4.05424e-05
-4.20314e-05
-4.58614e-05
-2.80706e-05
-5.00122e-05
-1.3366e-05
-5.25557e-05
-4.76607e-05
-1.43226e-05
6.10989e-05
-3.00975e-05
6.74506e-05
-4.50897e-05
6.43028e-05
-5.88262e-05
5.91547e-05
-7.09732e-05
5.2545e-05
-8.12675e-05
4.47222e-05
-8.95092e-05
3.59284e-05
-9.55535e-05
2.63935e-05
-9.93011e-05
1.63298e-05
-0.000100689
5.93212e-06
-9.96862e-05
-4.61755e-06
-9.62906e-05
-1.51346e-05
-9.05333e-05
-2.54295e-05
-8.24855e-05
-3.52914e-05
-7.22695e-05
-4.4483e-05
-6.00715e-05
-5.27404e-05
-4.61537e-05
-5.97792e-05
-3.08636e-05
-6.53023e-05
-1.47083e-05
-6.8711e-05
-6.2369e-05
-1.59823e-05
7.70812e-05
-3.35556e-05
8.50239e-05
-5.02007e-05
8.09478e-05
-6.53837e-05
7.43378e-05
-7.87443e-05
6.59056e-05
-9.00139e-05
5.59918e-05
-9.9002e-05
4.49165e-05
-0.00010558
3.29717e-05
-0.000109665
2.04148e-05
-0.000111205
7.4719e-06
-0.000110169
-5.65374e-06
-0.000106546
-1.8757e-05
-0.00010035
-3.16263e-05
-9.16247e-05
-4.40163e-05
-8.04687e-05
-5.5639e-05
-6.70508e-05
-6.61583e-05
-5.16335e-05
-7.51964e-05
-3.45925e-05
-8.23433e-05
-1.65059e-05
-8.67977e-05
-7.88749e-05
-1.81289e-05
9.52101e-05
-3.80129e-05
0.000104908
-5.6755e-05
9.96899e-05
-7.37432e-05
9.1326e-05
-8.85893e-05
8.07517e-05
-0.000101029
6.84316e-05
-0.000110896
5.47838e-05
-0.000118095
4.01704e-05
-0.000122572
2.48914e-05
-0.000124294
9.19406e-06
-0.000123235
-6.71283e-06
-0.000119371
-2.26208e-05
-0.000112685
-3.83125e-05
-0.000103181
-5.35204e-05
-9.09103e-05
-6.79094e-05
-7.60054e-05
-8.10633e-05
-5.87148e-05
-9.2487e-05
-3.94408e-05
-0.000101617
-1.88532e-05
-0.000107385
-9.77281e-05
-2.08734e-05
0.000116084
-4.36836e-05
0.000127718
-6.50346e-05
0.000121041
-8.42164e-05
0.000110508
-0.000100819
9.7354e-05
-0.000114602
8.2215e-05
-0.000125452
6.56333e-05
-0.00013333
4.80482e-05
-0.000138234
2.97954e-05
-0.000140165
1.11255e-05
-0.000139106
-7.77139e-06
-0.000135015
-2.67118e-05
-0.00012783
-4.54982e-05
-0.000117487
-6.38629e-05
-0.000103961
-8.14351e-05
-8.73122e-05
-9.77125e-05
-6.77452e-05
-0.000112054
-4.5677e-05
-0.000123686
-2.18912e-05
-0.000131171
-0.000119619
-2.43821e-05
0.000140466
-5.08806e-05
0.000154217
-7.54385e-05
0.000145599
-9.72289e-05
0.000132298
-0.000115839
0.000115964
-0.000131094
9.74697e-05
-0.000142973
7.75127e-05
-0.000151539
5.66143e-05
-0.000156874
3.51299e-05
-0.000159033
1.32843e-05
-0.000158017
-8.78742e-06
-0.000153757
-3.09716e-05
-0.000146126
-5.31289e-05
-0.00013496
-7.50292e-05
-0.000120105
-9.62903e-05
-0.00010149
-0.000116327
-7.92222e-05
-0.000134322
-5.36993e-05
-0.000149208
-2.58352e-05
-0.000159035
-0.000145454
-2.89114e-05
0.000169377
-6.00702e-05
0.000185375
-8.85389e-05
0.000174067
-0.000113365
0.000157124
-0.000134181
0.000136781
-0.000150946
0.000114235
-0.000163807
9.03743e-05
-0.000172989
6.57963e-05
-0.000178704
4.08443e-05
-0.00018109
1.56711e-05
-0.000180183
-9.69463e-06
-0.000175879
-3.52757e-05
-0.000167959
-6.10492e-05
-0.000156106
-8.68815e-05
-0.000139969
-0.000112428
-0.000119253
-0.000137043
-9.38679e-05
-0.000159707
-6.41116e-05
-0.000178965
-3.10263e-05
-0.00019212
-0.000176481
-3.48743e-05
0.000204251
-7.19645e-05
0.000222466
-0.00010517
0.000207272
-0.000133432
0.000185386
-0.000156533
0.000159882
-0.00017469
0.000132391
-0.000188329
0.000104013
-0.000197924
7.53917e-05
-0.000203883
4.6803e-05
-0.000206469
1.82571e-05
-0.000205766
-1.03975e-05
-0.000201636
-3.94054e-05
-0.000193735
-6.89505e-05
-0.00018153
-9.90868e-05
-0.000164369
-0.000129588
-0.000141596
-0.000159817
-0.000112746
-0.000188557
-7.78548e-05
-0.000213856
-3.80315e-05
-0.000231944
-0.000214512
-4.29728e-05
0.000247224
-8.76832e-05
0.000267176
-0.000126568
0.000246157
-0.000158555
0.000217374
-0.000183791
0.000185118
-0.000202954
0.000151554
-0.000216916
0.000117975
-0.000226524
8.50003e-05
-0.000232466
5.27452e-05
-0.000235178
2.09687e-05
-0.00023481
-1.07657e-05
-0.000231193
-4.30221e-05
-0.000223835
-7.63085e-05
-0.000211918
-0.000111004
-0.000194346
-0.00014716
-0.000169897
-0.000184266
-0.000137451
-0.000221003
-9.64396e-05
-0.000254868
-4.78597e-05
-0.000280524
-0.000262372
-5.44928e-05
0.000301717
-0.000109041
0.000321724
-0.000154597
0.000291713
-0.000190309
0.000253086
-0.000217103
0.000211911
-0.000236438
0.000170889
-0.000249885
0.000131422
-0.000258835
9.39501e-05
-0.000264331
5.82414e-05
-0.000267025
2.36629e-05
-0.000267158
-1.06327e-05
-0.000264543
-4.56373e-05
-0.000258531
-8.23212e-05
-0.00024797
-0.000121564
-0.00023119
-0.000163941
-0.000206072
-0.000209384
-0.000170399
-0.000256675
-0.000122366
-0.0003029
-6.2491e-05
-0.000340399
-0.000324863
-7.19452e-05
0.000373662
-0.000139054
0.000388833
-0.000192088
0.000344747
-0.000230884
0.000291882
-0.000257865
0.000238893
-0.000275834
0.000188857
-0.000287414
0.000143002
-0.000294673
0.00010121
-0.000299075
6.26432e-05
-0.000301512
2.60998e-05
-0.000302339
-9.80576e-06
-0.000301379
-4.65969e-05
-0.000297858
-8.58425e-05
-0.000290293
-0.000129129
-0.000276347
-0.000177886
-0.000252711
-0.00023302
-0.000215259
-0.000294127
-0.000159828
-0.000358332
-8.56531e-05
-0.000414573
-0.000410516
-9.98894e-05
0.000473551
-0.000182759
0.000471703
-0.000243334
0.000405321
-0.0002832
0.000331748
-0.000307652
0.000263345
-0.000321719
0.000202924
-0.000329381
0.000150665
-0.000333478
0.000105306
-0.000335881
6.50466e-05
-0.000337701
2.79193e-05
-0.000339412
-8.09505e-06
-0.000340905
-4.51032e-05
-0.000341384
-8.53634e-05
-0.000339158
-0.000131355
-0.000331276
-0.000185769
-0.000313042
-0.000251255
-0.000277574
-0.000329594
-0.000216018
-0.000419888
-0.00012475
-0.000505841
-0.000535266
-0.00014954
0.000623091
-0.000249271
0.000571435
-0.000314781
0.000470831
-0.000350877
0.000367843
-0.000368013
0.000280481
-0.000374239
0.000209151
-0.0003751
0.000151525
-0.00037411
0.000104317
-0.000373394
6.43302e-05
-0.000374123
2.86486e-05
-0.000376844
-5.37451e-06
-0.00038161
-4.03371e-05
-0.000387844
-7.91299e-05
-0.000394003
-0.000125195
-0.00039691
-0.000182862
-0.000390659
-0.000257506
-0.000365034
-0.00035522
-0.000302935
-0.000481987
-0.000196057
-0.000612719
-0.000731323
-0.000225226
0.000848318
-0.000346713
0.000692922
-0.000414041
0.000538159
-0.000437696
0.000391498
-0.000439598
0.000282383
-0.000432276
0.000201829
-0.00042266
0.00014191
-0.000414401
9.60574e-05
-0.000409327
5.9257e-05
-0.000408377
2.76977e-05
-0.00041208
-1.67063e-06
-0.000420747
-3.16703e-05
-0.000434339
-6.55376e-05
-0.000452169
-0.000107365
-0.000472014
-0.000163017
-0.00048793
-0.00024159
-0.000487499
-0.000355651
-0.000436795
-0.000532691
-0.000328611
-0.000720903
-0.00105993
-0.000452056
0.00130037
-0.000534233
0.0007751
-0.000556339
0.000560265
-0.000542452
0.000377611
-0.000513629
0.00025356
-0.000484188
0.000172387
-0.000459504
0.000117225
-0.000441427
7.79813e-05
-0.000430552
4.83811e-05
-0.000427086
2.42324e-05
-0.000430999
2.24172e-06
-0.000443507
-1.91618e-05
-0.000465081
-4.39637e-05
-0.000496895
-7.55512e-05
-0.00054009
-0.000119822
-0.000592951
-0.000188728
-0.00064799
-0.000300612
-0.000652801
-0.00052788
-0.00057225
-0.000801454
-0.00163218
-0.000625787
0.00192616
-0.000613769
0.000763082
-0.000543426
0.000489921
-0.000450431
0.000284616
-0.000364165
0.000167294
-0.0002972
0.000105423
-0.000248575
6.86007e-05
-0.000215261
4.46675e-05
-0.000194783
2.7903e-05
-0.000185545
1.49945e-05
-0.000187062
3.75802e-06
-0.000199094
-7.1292e-06
-0.000223256
-1.9802e-05
-0.00026108
-3.77274e-05
-0.000314177
-6.67249e-05
-0.00038063
-0.000122276
-0.000454263
-0.000226979
-0.000509121
-0.000473021
-0.000472242
-0.000838334
-0.00210443
0.00192616
0.00268924
0.00317916
0.00346378
0.00363107
0.0037365
0.0038051
0.00384976
0.00387767
0.00389266
0.00389642
0.00388929
0.00386949
0.00383176
0.00376504
0.00364276
0.00341578
0.00294276
0.00210443
)
;

boundaryField
{
    movingWall
    {
        type            calculated;
        value           uniform 0;
    }
    fixedWalls
    {
        type            calculated;
        value           uniform 0;
    }
    frontAndBack
    {
        type            empty;
        value           nonuniform List<scalar> 0();
    }
}


// ************************************************************************* //
