/*--------------------------------*- C++ -*----------------------------------*\
  =========                 |
  \\      /  F ield         | OpenFOAM: The Open Source CFD Toolbox
   \\    /   O peration     | Website:  https://openfoam.org
    \\  /    A nd           | Version:  10
     \\/     M anipulation  |
\*---------------------------------------------------------------------------*/
FoamFile
{
    format      ascii;
    class       surfaceScalarField;
    location    "9.75";
    object      phi;
}
// * * * * * * * * * * * * * * * * * * * * * * * * * * * * * * * * * * * * * //

dimensions      [0 3 -1 0 0 0 0];

internalField   nonuniform List<scalar> 
928
(
0.0959845
0.0040155
0.103425
-0.00744042
0.106771
-0.00334597
-0.00966321
0.116434
0.0946714
0.00934408
0.105679
-0.0184475
0.102184
0.000148354
-0.0192499
0.111771
0.095448
0.0138961
0.107959
-0.0309582
0.103441
0.00466551
-0.0395695
0.123761
0.103737
0.0101591
0.0949493
-0.0221705
0.0994161
0.000198724
0.147737
-0.0878901
0.110869
0.00556533
-0.016187
0.127056
0.107927
0.00940874
-0.0412297
0.13297
0.124834
0.00833567
-0.044429
0.128033
0.156072
0.111643
0.126265
0.000790678
0.12658
-0.000315098
0.127997
-0.00141644
-0.00154586
0.129543
0.132652
0.00110844
0.131948
0.000388951
0.132803
-0.00227133
-0.00347009
0.134728
0.130683
-0.00154113
0.13335
-0.00227849
0.1328
-0.00172051
-0.00278305
0.132113
0.105143
0.00495895
0.11364
-0.0107751
0.114632
-0.00271272
0.105765
0.0060845
0.131058
-0.00151509
0.131466
-0.000408122
0.131781
-0.000315695
0.131107
0.000674825
0.131021
8.52499e-05
0.130925
9.66438e-05
0.130856
6.92078e-05
0.131155
-0.000299231
0.13112
3.43607e-05
0.131242
-0.000121498
0.12987
0.00137217
0.128307
0.00156291
0.125642
0.00266484
0.122783
0.00285887
0.120071
0.00271246
0.117794
0.00227709
0.116751
0.00104279
0.115679
0.00107159
0.116038
-0.000359078
0.116149
-0.00011123
0.117109
-0.000959593
0.117183
-7.35882e-05
0.11676
0.000422799
0.115281
0.00147916
0.112688
0.00259235
0.109473
0.00321515
0.105875
0.00359825
0.10279
0.00308516
0.100359
0.00243044
0.099487
0.00087235
0.0997786
-0.00029158
0.102008
-0.00222927
0.10474
-0.00273188
0.108238
-0.0034979
0.110848
-0.00261005
0.113296
-0.00244824
0.113939
-0.000642781
0.11381
0.000128508
0.112094
0.00171573
0.00331284
0.136035
-0.0028227
0.135643
-1.61796e-05
0.135363
-3.5013e-05
0.135465
0.000572455
0.135708
-0.000157607
0.13563
0.000174076
0.13592
-0.000220753
0.136825
-0.00120411
0.137345
-0.000485039
0.137338
-0.000114934
0.136249
0.00246141
0.135176
0.0026357
0.133637
0.00420393
0.1318
0.00469623
0.129702
0.00480954
0.127241
0.0047388
0.125862
0.00242164
0.12496
0.0019738
0.125701
-0.00110043
0.126822
-0.00123191
0.128334
-0.00247149
0.129628
-0.00136756
0.129954
9.63691e-05
0.129621
0.00181235
0.127797
0.00441652
0.125983
0.00502884
0.122975
0.00660591
0.120452
0.00560848
0.117354
0.00552844
0.115711
0.00251539
0.115317
0.000102809
0.116746
-0.00365866
0.118894
-0.0048801
0.121643
-0.00624686
0.124207
-0.00517413
0.126515
-0.00475651
0.128612
-0.00273898
0.129789
-0.00104856
0.130099
0.00140531
0.00462659
0.131288
-0.00199814
0.130118
0.00115358
0.131204
-0.00112093
0.131001
0.000775379
0.130124
0.000719233
0.130341
-4.28028e-05
0.131783
-0.00166242
0.132251
-0.00167166
0.131926
-0.000160094
0.131526
0.000284492
0.132141
0.00184654
0.132017
0.00276012
0.130976
0.00524472
0.128577
0.00709493
0.126391
0.00699592
0.124742
0.00638743
0.123458
0.00370576
0.123223
0.00220894
0.123496
-0.00137387
0.124271
-0.00200697
0.125892
-0.00409204
0.127728
-0.00320341
0.129921
-0.00209651
0.131669
6.36914e-05
0.132297
0.00378919
0.131698
0.00562786
0.12953
0.00877398
0.126554
0.00858448
0.123555
0.00852681
0.12155
0.00452009
0.119501
0.00215265
0.118511
-0.00266923
0.116877
-0.00324614
0.116423
-0.00579298
0.116489
-0.00524002
0.117016
-0.00528339
0.119672
-0.00539476
0.121644
-0.00302064
0.125301
-0.00225138
0.00271552
0.111559
-0.00779219
0.106971
0.00574083
0.111822
-0.00597158
0.107797
0.00480062
0.104695
0.0038208
0.107177
-0.00252454
0.10685
-0.00133562
0.104571
0.000606985
0.104191
0.000220617
0.104696
-0.000221066
0.107591
-0.00104834
0.110121
0.000229993
0.11229
0.00307583
0.113988
0.00539727
0.113396
0.00758813
0.110238
0.00954459
0.106377
0.00756753
0.102548
0.00603812
0.097648
0.00352561
0.0956485
-7.48398e-06
0.0945293
-0.00297281
0.0964009
-0.00507502
0.0999797
-0.0056753
0.104426
-0.00438257
0.110316
-0.00210085
0.115651
0.000293357
0.120528
0.00389641
0.122404
0.00670892
0.1222
0.00873051
0.116066
0.0106543
0.106781
0.0114374
0.0937654
0.0103463
0.0826736
0.00784567
0.0755058
0.00137476
0.0722057
-0.00193995
0.0733346
-0.00641227
0.0771315
-0.00919168
0.0824638
-0.00835287
0.0893137
-0.00910127
-0.0029334
0.109768
0.000390749
0.0877374
-0.000139604
0.0873406
0.000595541
-0.000549441
0.111097
-0.0107064
0.0885843
0.0223732
0.0894458
-0.00026589
0.0888963
-0.0032672
0.00822615
0.0121537
-0.026196
0.014508
-0.00506697
0.0406568
-0.0200643
0.00204019
0.00618596
0.00297878
-0.0271346
-0.00665399
0.0045658
0.022539
0.0114638
-0.0161251
-0.0117314
-0.00710287
-0.00328144
-0.00130398
-0.0117705
0.00163562
0.00186102
-0.00559588
0.0110523
-0.00459141
-0.00352901
0.0056847
-0.0116117
0.0107882
-0.00449651
0.0117669
-0.000758098
0.0126126
-0.00106672
0.0139528
-0.00238853
0.017209
-0.00302621
0.0205777
-0.000292916
0.0229593
0.00301565
0.0232222
0.00732524
0.0242086
0.00855824
0.0238919
0.00788417
0.0243761
0.005554
0.0268975
0.00100421
0.0291564
-0.00226638
0.0330617
-0.00687811
0.0373228
-0.00933615
0.041196
-0.00954852
0.0460961
-0.00928265
0.0497842
-0.00578899
0.051455
-0.00137742
0.0521419
0.00320956
0.0513902
0.0074606
0.0478222
0.0122985
0.0438596
0.014617
0.0404968
0.0148002
0.0378105
0.0130326
0.0370078
0.00864842
0.0370378
0.00134474
0.0380153
-0.00291747
0.0394413
-0.00783828
0.0424258
-0.0121762
0.0461322
-0.0120593
0.050387
-0.013356
-0.00634674
0.00997769
0.000829978
0.0110723
-0.00437605
-0.00115667
0.00045849
-0.00368965
0.00439401
0.00448332
0.00287933
0.0031112
-0.00215688
-0.00378764
-0.0047129
-0.00610157
-0.00218257
-0.00364177
-0.00321789
0.000808207
-0.0055167
0.00357158
-0.00515191
0.00480165
-0.00425629
0.00634862
-0.00183989
0.00800814
0.00135613
0.0129628
0.00237063
0.0180923
0.00342872
0.0219861
0.00399033
0.0258851
0.00165501
0.0292196
-0.00233024
0.0312023
-0.00424912
0.0314907
-0.00716651
0.0312213
-0.00906682
0.0306281
-0.00895528
0.0305914
-0.00924592
0.0308328
-0.00603037
0.0312806
-0.00182525
0.0330569
0.00143327
0.0349197
0.00559779
0.0377152
0.00950296
0.0411862
0.011146
0.0450035
0.0109829
0.0493077
0.00872842
0.0534703
0.00448581
0.0544985
0.000316517
0.0549151
-0.00333408
0.0538857
-0.00680883
0.0499314
-0.00822185
0.0468908
-0.00901871
0.0441395
-0.0106047
-0.00543612
0.102867
-0.0135734
0.0938579
0.0313824
0.0983852
-0.00479319
0.0401247
0.147157
0.0955611
-0.00913449
0.108807
0.0181369
0.103496
0.000517175
0.0187513
0.12487
0.0948893
-0.00402381
0.105641
0.00738517
0.102631
0.00352682
0.00915466
0.112228
0.0959762
0.103361
0.106888
0.116043
0.155374
-0.0082171
0.0453029
0.110071
0.125632
-0.00897954
0.0403035
0.130631
0.108403
-0.00515429
0.0157699
0.132936
0.110889
0.126658
0.115941
0.000315719
0.089907
-0.00110031
0.0894762
0.00499655
0.00737708
0.0935629
0.131113
-0.000165972
0.13124
-0.00122673
0.135003
0.00123315
0.00510178
0.137278
0.133457
-0.000686245
0.132296
-6.61042e-05
0.132253
0.00127661
0.00224895
0.135105
0.125972
0.125906
0.127183
0.129432
0.0933309
0.001062
0.0892177
-0.000262917
0.08872
0.00095621
0.0909757
0.00213826
0.0921018
0.00175324
0.0907211
-0.000776171
0.0879434
-0.00193514
0.0881176
-0.00235683
0.0870872
-0.00218748
0.0836752
-0.00210465
0.0798118
-0.00128853
0.0764903
-0.000934804
0.0753066
-0.000656194
0.0765402
0.00012251
0.0785985
0.000312364
0.0819885
3.87231e-05
0.0882082
-0.00222938
0.0934652
-0.00360197
0.0976407
-0.00650573
0.100338
-0.00694642
0.100089
-0.00691752
0.0966467
-0.00562456
0.0914284
-0.00373699
0.0844471
-0.0022646
0.0786181
-0.000201321
0.0750674
0.0017254
0.0725196
0.00398109
0.0742822
0.00383524
0.0783728
0.0054123
0.0852363
0.00428254
0.0927579
0.00346124
0.101114
0.00037256
0.109317
-0.00371712
0.117386
-0.00775228
0.124026
-0.00997453
0.127976
-0.0107587
0.128183
-0.00842886
0.124121
-0.00495687
0.114645
-0.00112871
0.00195789
0.134284
0.00405654
0.132419
0.00160218
0.133404
-2.90398e-05
0.135448
9.43329e-05
0.137421
-0.000219488
0.136932
-0.000288134
0.135811
-0.000813798
0.135126
-0.00167165
0.134344
-0.00140558
0.1345
-0.00226061
0.133846
-0.000634186
0.133606
-0.000695431
0.132937
1.27995e-05
0.133395
-0.000335538
0.134746
-0.00103851
0.13575
-0.000965258
0.137242
-0.00372104
0.137517
-0.00387703
0.137163
-0.00615181
0.13571
-0.00549304
0.134709
-0.00591665
0.133887
-0.00480281
0.132758
-0.00260773
0.131238
-0.000744813
0.128956
0.00208096
0.127928
0.00275271
0.127276
0.00463322
0.127323
0.00378799
0.129033
0.0037031
0.131169
0.00214622
0.134777
-0.00014706
0.137975
-0.0028253
0.139867
-0.00560939
0.139618
-0.00750247
0.137281
-0.00763823
0.134221
-0.0076982
0.130745
-0.00495273
0.128831
-0.00304342
0.127053
0.000649304
0.00349305
0.137106
0.00205588
0.137237
0.00147089
0.13723
-2.18242e-05
0.137681
-0.000356312
0.138137
-0.000675501
0.138567
-0.000717965
0.138412
-0.000659004
0.137719
-0.000979136
0.136855
-0.000541635
0.135801
-0.00120663
0.135863
-0.00069565
0.13582
-0.000652372
0.136093
-0.000260006
0.136228
-0.000471115
0.136145
-0.000955021
0.136129
-0.000949299
0.134538
-0.00213007
0.13295
-0.00228939
0.130138
-0.00334003
0.127714
-0.00306893
0.124883
-0.0030857
0.122436
-0.00235577
0.12119
-0.00136185
0.120844
-0.00039819
0.121865
0.00105921
0.123203
0.00141466
0.125614
0.00222263
0.127499
0.00190304
0.129647
0.00155485
0.131209
0.000584451
0.131668
-0.00060643
0.130744
-0.00190103
0.128485
-0.00335061
0.125342
-0.00435894
0.121922
-0.00421844
0.118269
-0.00404528
0.115279
-0.00196219
0.113286
-0.00105066
0.112872
0.0010633
0.00190186
0.131487
0.132958
0.132937
0.13258
0.131905
0.131187
0.130528
0.129549
0.129007
0.1278
0.127105
0.126452
0.126192
0.125721
0.124766
0.123817
0.121687
0.119397
0.116057
0.112988
0.109903
0.107547
0.106185
0.105787
0.106846
0.108261
0.110483
0.112387
0.113941
0.114526
0.113919
0.112018
0.108668
0.104309
0.10009
0.0960451
0.0940829
0.0930322
0.0940955
)
;

boundaryField
{
    inlet
    {
        type            calculated;
        value           nonuniform List<scalar> 10(-0.1 -0.1 -0.1 -0.1 -0.1 -0.1 -0.1 -0.1 -0.1 -0.1);
    }
    outlet
    {
        type            calculated;
        value           nonuniform List<scalar> 10(0.108782 0.128785 0.127212 0.0949626 0.0538004 0.0432289 0.107251 0.125518 0.114463 0.0959974);
    }
    obstacle
    {
        type            calculated;
        value           uniform 0;
    }
    upperWall
    {
        type            calculated;
        value           uniform 0;
    }
    lowerWall
    {
        type            calculated;
        value           uniform 0;
    }
    frontAndBack
    {
        type            empty;
        value           nonuniform List<scalar> 0();
    }
}


// ************************************************************************* //
