/*--------------------------------*- C++ -*----------------------------------*\
  =========                 |
  \\      /  F ield         | OpenFOAM: The Open Source CFD Toolbox
   \\    /   O peration     | Website:  https://openfoam.org
    \\  /    A nd           | Version:  10
     \\/     M anipulation  |
\*---------------------------------------------------------------------------*/
FoamFile
{
    format      ascii;
    class       surfaceScalarField;
    location    "0.2";
    object      phi;
}
// * * * * * * * * * * * * * * * * * * * * * * * * * * * * * * * * * * * * * //

dimensions      [0 3 -1 0 0 0 0];

internalField   nonuniform List<scalar> 
760
(
-3.92934e-06
3.92935e-06
-7.91929e-06
3.98995e-06
-1.17051e-05
3.78581e-06
-1.51885e-05
3.48343e-06
-1.82838e-05
3.09524e-06
-2.09171e-05
2.63338e-06
-2.30283e-05
2.11111e-06
-2.45703e-05
1.54207e-06
-2.55102e-05
9.39834e-07
-2.58279e-05
3.17718e-07
-2.55167e-05
-3.11203e-07
-2.45827e-05
-9.33935e-07
-2.30454e-05
-1.53735e-06
-2.09374e-05
-2.10804e-06
-1.83051e-05
-2.63227e-06
-1.52089e-05
-3.09623e-06
-1.17224e-05
-3.48646e-06
-7.93182e-06
-3.79058e-06
-3.93584e-06
-3.99598e-06
-3.93583e-06
-4.19402e-06
8.12337e-06
-8.44854e-06
8.24447e-06
-1.24836e-05
7.82089e-06
-1.6194e-05
7.19385e-06
-1.94885e-05
6.38967e-06
-2.22891e-05
5.43405e-06
-2.45328e-05
4.35472e-06
-2.61706e-05
3.17996e-06
-2.71685e-05
1.93768e-06
-2.75058e-05
6.55067e-07
-2.71757e-05
-6.41356e-07
-2.61844e-05
-1.92526e-06
-2.45517e-05
-3.17001e-06
-2.23115e-05
-4.34823e-06
-1.95121e-05
-5.43169e-06
-1.62166e-05
-6.39173e-06
-1.25028e-05
-7.20021e-06
-8.46246e-06
-7.83096e-06
-4.20124e-06
-8.25721e-06
-8.13707e-06
-4.40916e-06
1.25325e-05
-8.87981e-06
1.27151e-05
-1.31153e-05
1.20564e-05
-1.70045e-05
1.1083e-05
-2.0452e-05
9.83716e-06
-2.33779e-05
8.35996e-06
-2.57182e-05
6.69506e-06
-2.74246e-05
4.88636e-06
-2.84634e-05
2.9765e-06
-2.88148e-05
1.00643e-06
-2.84719e-05
-9.84252e-07
-2.74408e-05
-2.95639e-06
-2.57406e-05
-4.87022e-06
-2.34043e-05
-6.68448e-06
-2.04799e-05
-8.35605e-06
-1.70312e-05
-9.84044e-06
-1.31382e-05
-1.10933e-05
-8.8964e-06
-1.20727e-05
-4.41777e-06
-1.27358e-05
-1.25548e-05
-4.74066e-06
1.72732e-05
-9.54328e-06
1.75177e-05
-1.40855e-05
1.65986e-05
-1.82466e-05
1.52441e-05
-2.19254e-05
1.35159e-05
-2.50391e-05
1.14737e-05
-2.75235e-05
9.17947e-06
-2.93314e-05
6.69419e-06
-3.04306e-05
4.07573e-06
-3.08026e-05
1.37847e-06
-3.04411e-05
-1.34577e-06
-2.93515e-05
-4.04603e-06
-2.75514e-05
-6.67029e-06
-2.50722e-05
-9.16371e-06
-2.19605e-05
-1.14678e-05
-1.82803e-05
-1.35206e-05
-1.41144e-05
-1.52592e-05
-9.56429e-06
-1.66228e-05
-4.75158e-06
-1.75485e-05
-1.73064e-05
-5.20372e-06
2.24769e-05
-1.04685e-05
2.27825e-05
-1.5435e-05
2.15651e-05
-1.99691e-05
1.97782e-05
-2.3962e-05
1.75088e-05
-2.73281e-05
1.48398e-05
-3.00041e-05
1.18555e-05
-3.19456e-05
8.63572e-06
-3.3124e-05
5.25409e-06
-3.35231e-05
1.7776e-06
-3.31375e-05
-1.73139e-06
-3.19715e-05
-5.21205e-06
-3.004e-05
-8.60172e-06
-2.73709e-05
-1.18328e-05
-2.40077e-05
-1.4831e-05
-2.00132e-05
-1.75151e-05
-1.54729e-05
-1.97995e-05
-1.04961e-05
-2.15995e-05
-5.21814e-06
-2.28265e-05
-2.25246e-05
-5.81805e-06
2.8295e-05
-1.1693e-05
2.86574e-05
-1.72146e-05
2.70867e-05
-2.22306e-05
2.47943e-05
-2.66232e-05
2.19014e-05
-3.03055e-05
1.85221e-05
-3.32178e-05
1.47678e-05
-3.53221e-05
1.074e-05
-3.65959e-05
6.52791e-06
-3.70277e-05
2.20941e-06
-3.66136e-05
-2.14554e-06
-3.5356e-05
-6.46963e-06
-3.32651e-05
-1.06926e-05
-3.03621e-05
-1.47359e-05
-2.66839e-05
-1.85092e-05
-2.22895e-05
-2.19095e-05
-1.72655e-05
-2.48235e-05
-1.17303e-05
-2.71347e-05
-5.83757e-06
-2.87193e-05
-2.83621e-05
-6.61252e-06
3.49075e-05
-1.32711e-05
3.5316e-05
-1.94964e-05
3.3312e-05
-2.51124e-05
3.04103e-05
-2.99922e-05
2.67812e-05
-3.40511e-05
2.2581e-05
-3.72385e-05
1.79552e-05
-3.95284e-05
1.30299e-05
-4.09095e-05
7.90906e-06
-4.13781e-05
2.67798e-06
-4.09328e-05
-2.59088e-06
-3.95731e-05
-7.82931e-06
-3.73012e-05
-1.29645e-05
-3.41266e-05
-1.79105e-05
-3.00738e-05
-2.2562e-05
-2.51921e-05
-2.67912e-05
-1.95659e-05
-3.04498e-05
-1.33225e-05
-3.33781e-05
-6.63946e-06
-3.54023e-05
-3.50016e-05
-7.62969e-06
4.25372e-05
-1.52817e-05
4.2968e-05
-2.23822e-05
4.04124e-05
-2.87258e-05
3.6754e-05
-3.41788e-05
3.22342e-05
-3.8666e-05
2.70682e-05
-4.21557e-05
2.14449e-05
-4.46432e-05
1.55173e-05
-4.6136e-05
9.40186e-06
-4.66428e-05
3.18477e-06
-4.61665e-05
-3.06712e-06
-4.47022e-05
-9.29362e-06
-4.2239e-05
-1.54277e-05
-3.87671e-05
-2.13824e-05
-3.42891e-05
-2.704e-05
-2.88347e-05
-3.22455e-05
-2.24781e-05
-3.68064e-05
-1.53531e-05
-4.05031e-05
-7.66744e-06
-4.3088e-05
-4.2669e-05
-8.93344e-06
5.14706e-05
-1.784e-05
5.18746e-05
-2.60167e-05
4.85891e-05
-3.32233e-05
4.39606e-05
-3.93269e-05
3.83377e-05
-4.42762e-05
3.20175e-05
-4.80745e-05
2.52432e-05
-5.07531e-05
1.81959e-05
-5.23494e-05
1.09982e-05
-5.28916e-05
3.72696e-06
-5.23893e-05
-3.56938e-06
-5.08306e-05
-1.08523e-05
-4.81848e-05
-1.80735e-05
-4.44115e-05
-2.51557e-05
-3.94764e-05
-3.19752e-05
-3.3373e-05
-3.83489e-05
-2.61503e-05
-4.40291e-05
-1.79408e-05
-4.87126e-05
-8.98716e-06
-5.20417e-05
-5.16562e-05
-1.06227e-05
6.20933e-05
-2.11191e-05
6.2371e-05
-3.06084e-05
5.80784e-05
-3.88146e-05
5.21668e-05
-4.56239e-05
4.5147e-05
-5.10353e-05
3.74289e-05
-5.51132e-05
2.93211e-05
-5.79467e-05
2.10294e-05
-5.96189e-05
1.26704e-05
-6.0187e-05
4.29506e-06
-5.96705e-05
-4.08584e-06
-5.80476e-05
-1.24752e-05
-5.52583e-05
-2.08628e-05
-5.12158e-05
-2.91982e-05
-4.58265e-05
-3.73644e-05
-3.90212e-05
-4.51542e-05
-3.07962e-05
-5.22541e-05
-2.12632e-05
-5.82456e-05
-1.07006e-05
-6.26042e-05
-6.23568e-05
-1.28575e-05
7.49508e-05
-2.53852e-05
7.48987e-05
-3.64622e-05
6.91554e-05
-4.57897e-05
6.14944e-05
-5.33129e-05
5.26703e-05
-5.9127e-05
4.32429e-05
-6.3398e-05
3.35922e-05
-6.63042e-05
2.39355e-05
-6.79955e-05
1.43617e-05
-6.857e-05
4.86959e-06
-6.80612e-05
-4.59466e-06
-6.64337e-05
-1.41027e-05
-6.35867e-05
-2.37098e-05
-5.93657e-05
-3.34191e-05
-5.35867e-05
-4.31434e-05
-4.60755e-05
-5.26655e-05
-3.67285e-05
-6.16011e-05
-2.55946e-05
-6.93795e-05
-1.29732e-05
-7.52257e-05
-7.53299e-05
-1.59102e-05
9.0861e-05
-3.10608e-05
9.00492e-05
-4.40318e-05
8.21265e-05
-5.45519e-05
7.20144e-05
-6.27059e-05
6.08243e-05
-6.87628e-05
4.92998e-05
-7.3051e-05
3.78804e-05
-7.58803e-05
2.67648e-05
-7.74932e-05
1.59746e-05
-7.80411e-05
5.41744e-06
-7.75749e-05
-5.06084e-06
-7.6043e-05
-1.56347e-05
-7.3292e-05
-2.64607e-05
-6.90751e-05
-3.7636e-05
-6.3074e-05
-4.91446e-05
-5.49481e-05
-6.07913e-05
-4.44134e-05
-7.21357e-05
-3.1371e-05
-8.2422e-05
-1.60875e-05
-9.05091e-05
-9.14174e-05
-2.02712e-05
0.000111132
-3.88344e-05
0.000108612
-5.40012e-05
9.72932e-05
-6.56609e-05
8.36742e-05
-7.41949e-05
6.93582e-05
-8.01693e-05
5.52742e-05
-8.41668e-05
4.18779e-05
-8.6679e-05
2.9277e-05
-8.80632e-05
1.73589e-05
-8.85336e-05
5.88779e-06
-8.81616e-05
-5.43282e-06
-8.68775e-05
-1.69188e-05
-8.44674e-05
-2.88708e-05
-8.05702e-05
-4.15332e-05
-7.46847e-05
-5.50301e-05
-6.62098e-05
-6.92662e-05
-5.45535e-05
-8.37921e-05
-3.93047e-05
-9.76708e-05
-2.05548e-05
-0.000109259
-0.000111972
-2.68728e-05
0.000138005
-4.98571e-05
0.000131597
-6.7407e-05
0.000114843
-7.98822e-05
9.61494e-05
-8.82399e-05
7.77159e-05
-9.35567e-05
6.05911e-05
-9.67772e-05
4.50983e-05
-9.86163e-05
3.11161e-05
-9.95581e-05
1.83007e-05
-9.98793e-05
6.20895e-06
-9.96714e-05
-5.64065e-06
-9.8849e-05
-1.77412e-05
-9.71394e-05
-3.05805e-05
-9.40581e-05
-4.46145e-05
-8.88807e-05
-6.02075e-05
-8.06395e-05
-7.75074e-05
-6.82139e-05
-9.62177e-05
-5.05885e-05
-0.000115296
-2.7351e-05
-0.000132496
-0.000139323
-3.75739e-05
0.000175579
-6.60931e-05
0.000160116
-8.58152e-05
0.000134565
-9.82035e-05
0.000108538
-0.000105328
8.48408e-05
-0.000109057
6.432e-05
-0.000110788
4.68286e-05
-0.000111468
3.17964e-05
-0.000111688
1.85211e-05
-0.000111768
6.28854e-06
-0.000111811
-5.59783e-06
-0.000111725
-1.78269e-05
-0.000111203
-3.1103e-05
-0.00010966
-4.61573e-05
-0.000106144
-6.37229e-05
-9.92345e-05
-8.44173e-05
-8.70011e-05
-0.000108451
-6.72607e-05
-0.000135037
-3.84302e-05
-0.000161327
-0.000177753
-5.62642e-05
0.000231843
-9.09439e-05
0.000194796
-0.000111492
0.000155114
-0.000121783
0.000118828
-0.000125852
8.89099e-05
-0.000126599
6.50667e-05
-0.000125881
4.61107e-05
-0.000124804
3.07197e-05
-0.000123982
1.76991e-05
-0.000123716
6.02243e-06
-0.000124102
-5.21212e-06
-0.000125063
-1.68655e-05
-0.00012632
-2.98464e-05
-0.000127278
-4.51993e-05
-0.000126844
-6.41567e-05
-0.00012315
-8.81113e-05
-0.000113228
-0.000118373
-9.28491e-05
-0.000155415
-5.7877e-05
-0.000196299
-0.000235631
-9.09047e-05
0.000322748
-0.000130172
0.000234063
-0.000147374
0.000172316
-0.00015169
0.000123144
-0.00014981
8.70297e-05
-0.00014568
6.09372e-05
-0.000141387
4.18173e-05
-0.00013793
2.72629e-05
-0.000135754
1.55229e-05
-0.000135042
5.31043e-06
-0.000135851
-4.40282e-06
-0.000138152
-1.4565e-05
-0.000141791
-2.62068e-05
-0.000146365
-4.06253e-05
-0.00015092
-5.96016e-05
-0.000153409
-8.56226e-05
-0.000149869
-0.000121913
-0.000133356
-0.000171929
-9.43726e-05
-0.000235282
-0.000330003
-0.000165779
0.000488527
-0.000192698
0.000260982
-0.000196321
0.000175939
-0.00018784
0.000114663
-0.000175881
7.5071e-05
-0.000164705
4.97607e-05
-0.000155769
3.28812e-05
-0.000149431
2.09252e-05
-0.000145686
1.17777e-05
-0.000144459
4.08348e-06
-0.000145726
-3.1354e-06
-0.000149541
-1.07499e-05
-0.000156017
-1.97307e-05
-0.000165219
-3.14237e-05
-0.000176876
-4.79444e-05
-0.000189658
-7.28405e-05
-0.000199509
-0.000112063
-0.000197229
-0.000174208
-0.000171068
-0.000261444
-0.000501071
-0.00024363
0.000732157
-0.00024987
0.000267221
-0.00022959
0.000155659
-0.00019921
8.42833e-05
-0.000172686
4.85463e-05
-0.000152536
2.96115e-05
-0.00013823
1.85752e-05
-0.000128784
1.14785e-05
-0.000123392
6.38565e-06
-0.000121566
2.25776e-06
-0.000123142
-1.55902e-06
-0.000128276
-5.61587e-06
-0.000137449
-1.05586e-05
-0.000151455
-1.74176e-05
-0.000171257
-2.81419e-05
-0.000197313
-4.67845e-05
-0.000227221
-8.21547e-05
-0.000245718
-0.000155712
-0.00023694
-0.000270221
-0.000738011
0.000732157
0.000999379
0.00115504
0.00123932
0.00128787
0.00131748
0.00133605
0.00134753
0.00135392
0.00135618
0.00135462
0.001349
0.00133844
0.00132102
0.00129288
0.0012461
0.00116394
0.00100823
0.000738011
)
;

boundaryField
{
    movingWall
    {
        type            calculated;
        value           uniform 0;
    }
    fixedWalls
    {
        type            calculated;
        value           uniform 0;
    }
    frontAndBack
    {
        type            empty;
        value           nonuniform List<scalar> 0();
    }
}


// ************************************************************************* //
