/*--------------------------------*- C++ -*----------------------------------*\
  =========                 |
  \\      /  F ield         | OpenFOAM: The Open Source CFD Toolbox
   \\    /   O peration     | Website:  https://openfoam.org
    \\  /    A nd           | Version:  10
     \\/     M anipulation  |
\*---------------------------------------------------------------------------*/
FoamFile
{
    format      ascii;
    class       volScalarField;
    location    "2";
    object      p;
}
// * * * * * * * * * * * * * * * * * * * * * * * * * * * * * * * * * * * * * //

dimensions      [0 2 -2 0 0 0 0];

internalField   nonuniform List<scalar> 
400
(
3.9258e-09
-1.06027e-05
4.94734e-05
0.000154726
0.000307027
0.00050406
0.000742263
0.00101709
0.00132283
0.00165257
0.00199818
0.00235034
0.00269858
0.00303166
0.00333786
0.00360546
0.00382327
0.00398159
0.00407755
0.00407851
9.2151e-06
-2.70809e-06
5.70306e-05
0.000160583
0.000310593
0.000505081
0.00074071
0.00101314
0.00131685
0.00164506
0.00198967
0.00234166
0.00269042
0.00302464
0.00333244
0.00360191
0.00382159
0.00398161
0.00407953
0.00407968
-5.30163e-05
-6.74666e-05
-7.2644e-06
9.74988e-05
0.000249845
0.000447957
0.000688654
0.000967744
0.00127981
0.00161813
0.00197473
0.00234025
0.00270373
0.00305342
0.00337677
0.003661
0.00389358
0.00406351
0.00416787
0.00416713
-0.00016648
-0.000183417
-0.000121961
-1.44543e-05
0.000142638
0.00034776
0.000597959
0.000889255
0.00121638
0.00157264
0.0019499
0.00233883
0.00272784
0.00310429
0.00345456
0.00376438
0.00401946
0.00420685
0.00432262
0.00432247
-0.000335656
-0.00035559
-0.000292131
-0.000180342
-1.60229e-05
0.000199629
0.000463975
0.00077331
0.00112257
0.00150515
0.00191276
0.00233585
0.00276216
0.00317803
0.0035682
0.00391629
0.00420532
0.00441934
0.00455266
0.0045543
-0.000564128
-0.000587961
-0.000521927
-0.000404579
-0.000230834
-1.40235e-06
0.000281504
0.000614567
0.000993019
0.00141043
0.00185841
0.0023271
0.00280362
0.00327312
0.00371824
0.00411975
0.00445692
0.00470929
0.00486824
0.0048733
-0.000856164
-0.000885129
-0.000816234
-0.000692451
-0.00050753
-0.000261514
4.39658e-05
0.000406118
0.000820618
0.00128139
0.00178048
0.00230637
0.00284717
0.00338636
0.00390419
0.00437773
0.00478114
0.00508743
0.00528316
0.00529424
-0.00121719
-0.00125296
-0.00118132
-0.00105077
-0.000853514
-0.00058869
-0.000257156
0.000138993
0.000596011
0.00110827
0.00166793
0.00226456
0.00288515
0.00351229
0.00412391
0.00469269
0.00518614
0.00556788
0.0058164
0.00583818
-0.00165373
-0.00169859
-0.00162488
-0.00148796
-0.00127798
-0.000992871
-0.000632481
-0.000198022
0.000307513
0.000879168
0.00150975
0.00218982
0.00290641
0.00364175
0.00437197
0.00506521
0.00568052
0.00616838
0.00649354
0.00653504
-0.0021734
-0.0022305
-0.00215615
-0.00201422
-0.00179213
-0.00148619
-0.00109496
-0.000618619
-5.92633e-05
0.000579067
0.00129028
0.00206595
0.00289483
0.00376001
0.00463728
0.00549128
0.00627132
0.00691026
0.00734874
0.00742839
-0.00278505
-0.00285873
-0.0027862
-0.0026419
-0.00240956
-0.0020833
-0.00166014
-0.00113916
-0.000521601
0.000189484
0.000989382
0.00187148
0.00282765
0.00384412
0.00489938
0.00595764
0.00695986
0.00781697
0.00842657
0.00858407
-0.00349889
-0.0035952
-0.00352839
-0.00338601
-0.00314675
-0.00280181
-0.00234642
-0.00177873
-0.00109946
-0.000311022
0.000583323
0.0015795
0.0026741
0.00385977
0.00512307
0.00643444
0.00773235
0.00890903
0.00978258
0.0101066
-0.0043272
-0.00445423
-0.00439907
-0.00426508
-0.00402402
-0.003663
-0.00317534
-0.00255888
-0.00181485
-0.000945892
4.56146e-05
0.00115845
0.0023949
0.00375804
0.00525091
0.0068627
0.00854344
0.0101886
0.0114803
0.0121676
-0.00528826
-0.00545577
-0.00541977
-0.00530293
-0.00506696
-0.00469279
-0.00417188
-0.00350317
-0.00269042
-0.00173856
-0.000650422
0.000575716
0.00194377
0.00347277
0.00519263
0.00713162
0.00928197
0.0116
0.0135641
0.0150683
-0.00637346
-0.00661357
-0.00661415
-0.00652978
-0.00630851
-0.00592324
-0.00536481
-0.00463601
-0.00374695
-0.00270869
-0.00152796
-0.000204373
0.00126997
0.00292107
0.00481495
0.00704903
0.00971673
0.0129617
0.0159669
0.0193041
-0.00780456
-0.00798517
-0.00802813
-0.00798323
-0.00779006
-0.00739593
-0.00678887
-0.00598204
-0.0049999
-0.00386539
-0.00259223
-0.00117234
0.000444894
0.0021433
0.00408899
0.00648099
0.00950727
0.0137767
0.0180188
0.0249927
-0.00896879
-0.00971687
-0.00977995
-0.00985784
-0.00968209
-0.00922036
-0.00850301
-0.00756848
-0.00645881
-0.00521247
-0.00386717
-0.00246057
-0.00105219
0.000518102
0.00212467
0.00414799
0.00680591
0.0122596
0.0174883
0.0312307
-0.012441
-0.0106409
-0.0110831
-0.0112046
-0.0112231
-0.0108956
-0.0102176
-0.00923257
-0.00801166
-0.00662925
-0.00515525
-0.00362994
-0.00210608
-0.000568086
0.000923087
0.00248954
0.00393893
0.00923346
0.0148059
0.0382917
-0.0116257
-0.0154296
-0.015436
-0.0160644
-0.0157555
-0.0147846
-0.013404
-0.0118084
-0.0101128
-0.00838208
-0.00670097
-0.00511304
-0.00377016
-0.00275842
-0.00241744
-0.00243112
-0.00522976
-1.40329e-05
0.00392462
0.0503061
-0.0339878
-0.0118648
-0.0128366
-0.0136234
-0.0137602
-0.0134104
-0.0126429
-0.0114841
-0.0100468
-0.00843992
-0.00685602
-0.00522009
-0.00396274
-0.0025698
-0.0021601
-0.000562925
0.00182499
0.0180422
0.0543288
0.142093
)
;

boundaryField
{
    movingWall
    {
        type            zeroGradient;
    }
    fixedWalls
    {
        type            zeroGradient;
    }
    frontAndBack
    {
        type            empty;
    }
}


// ************************************************************************* //
