/*--------------------------------*- C++ -*----------------------------------*\
  =========                 |
  \\      /  F ield         | OpenFOAM: The Open Source CFD Toolbox
   \\    /   O peration     | Website:  https://openfoam.org
    \\  /    A nd           | Version:  10
     \\/     M anipulation  |
\*---------------------------------------------------------------------------*/
FoamFile
{
    format      ascii;
    class       volVectorField;
    location    "8.475";
    object      U;
}
// * * * * * * * * * * * * * * * * * * * * * * * * * * * * * * * * * * * * * //

dimensions      [0 1 -1 0 0 0 0];

internalField   nonuniform List<vector> 
8000
(
(-7.95384e-05 0.000107582 -3.94988e-05)
(-0.000547933 0.00022348 -2.57126e-06)
(-0.00132015 0.000260247 1.5399e-05)
(-0.0021166 0.000276584 2.47855e-05)
(-0.00295604 0.000290502 2.54143e-05)
(-0.00381756 0.000307064 2.02904e-05)
(-0.00469295 0.000325375 1.06052e-05)
(-0.00556893 0.000342328 -4.23127e-06)
(-0.00642151 0.00035375 -2.56809e-05)
(-0.00721334 0.000354556 -5.56261e-05)
(-0.00789106 0.000338812 -9.60979e-05)
(-0.00838437 0.000300409 -0.000148796)
(-0.0086088 0.000235 -0.000214254)
(-0.00847395 0.000141282 -0.000290715)
(-0.00789935 2.16993e-05 -0.000372317)
(-0.00683881 -0.000112305 -0.000446863)
(-0.00532044 -0.000232725 -0.000496554)
(-0.00351496 -0.000300984 -0.000500132)
(-0.0015222 -0.000275535 -0.000441203)
(-0.000235348 -6.58292e-05 -0.000231165)
(-0.000191673 0.000695942 -0.000123646)
(-0.00102494 0.00120765 -0.0001076)
(-0.00230424 0.00138031 -9.65324e-05)
(-0.00362339 0.00145248 -8.76091e-05)
(-0.00500292 0.00149878 -8.53586e-05)
(-0.00640493 0.00154077 -8.78616e-05)
(-0.00781003 0.00157714 -9.4508e-05)
(-0.00919305 0.00159736 -0.000106372)
(-0.0105144 0.00158622 -0.000125418)
(-0.0117161 0.00152508 -0.000154222)
(-0.0127183 0.00139297 -0.00019573)
(-0.0134172 0.00116898 -0.000252668)
(-0.0136901 0.000836427 -0.000326381)
(-0.0134102 0.000391319 -0.000415808)
(-0.0124652 -0.000145372 -0.000515485)
(-0.0107861 -0.000717831 -0.000606101)
(-0.008414 -0.00122267 -0.000664254)
(-0.00559823 -0.00151087 -0.000660046)
(-0.00249068 -0.0014185 -0.000567381)
(-0.000427021 -0.000616075 -0.000256583)
(-0.000226557 0.00167321 -0.000170583)
(-0.00119236 0.00275881 -0.000166263)
(-0.00266022 0.00312795 -0.000158899)
(-0.00416493 0.00327374 -0.00014945)
(-0.00573347 0.00335267 -0.00014524)
(-0.00732389 0.00341016 -0.000145049)
(-0.00891617 0.00344633 -0.000148667)
(-0.0104848 0.00344285 -0.000157595)
(-0.0119892 0.00337159 -0.000174369)
(-0.0133688 0.00319724 -0.00020245)
(-0.0145386 0.00287988 -0.000245948)
(-0.0153861 0.00237944 -0.000309032)
(-0.0157725 0.00166437 -0.000394893)
(-0.0155399 0.000727944 -0.000503883)
(-0.0145357 -0.000388884 -0.000627824)
(-0.0126543 -0.00158339 -0.000745259)
(-0.00991382 -0.00264848 -0.000823179)
(-0.00659937 -0.00327579 -0.000819515)
(-0.00288815 -0.00311767 -0.000698477)
(-0.000460073 -0.0015118 -0.00030048)
(-0.000229868 0.00270567 -0.000203674)
(-0.00123234 0.00440328 -0.000209451)
(-0.00276092 0.00497378 -0.000205296)
(-0.00432421 0.00519049 -0.000195853)
(-0.00595768 0.005301 -0.000190764)
(-0.00762138 0.00537702 -0.00018943)
(-0.00930071 0.00542156 -0.000192064)
(-0.0109766 0.00541005 -0.00020066)
(-0.0126153 0.0053029 -0.000218449)
(-0.0141623 0.00504842 -0.000250009)
(-0.0155346 0.00458566 -0.000301175)
(-0.0166138 0.00385059 -0.000378372)
(-0.0172412 0.00278923 -0.000487052)
(-0.0172214 0.00137969 -0.000628915)
(-0.016351 -0.000336635 -0.000804229)
(-0.0144417 -0.00220702 -0.000973813)
(-0.0114326 -0.00393182 -0.00109485)
(-0.00763514 -0.00499834 -0.00110234)
(-0.00324195 -0.00481558 -0.00094074)
(-0.000437616 -0.00230842 -0.000402141)
(-0.000218562 0.00379003 -0.000226462)
(-0.00121421 0.00613858 -0.000240903)
(-0.00274912 0.00692315 -0.000239475)
(-0.00432149 0.00721793 -0.000230576)
(-0.00597458 0.00736977 -0.000225961)
(-0.00767331 0.00748052 -0.000225675)
(-0.00941231 0.00755883 -0.000230449)
(-0.0111837 0.00757658 -0.000242962)
(-0.0129667 0.00748501 -0.000267442)
(-0.0147194 0.00721724 -0.000310028)
(-0.016368 0.00668934 -0.000379087)
(-0.0177933 0.00580593 -0.000484803)
(-0.0188175 0.0044746 -0.000637124)
(-0.019197 0.00263347 -0.000842571)
(-0.0186313 0.00030094 -0.00109554)
(-0.0168211 -0.00233746 -0.00136934)
(-0.0135702 -0.00489967 -0.00158061)
(-0.00915903 -0.00660095 -0.00162563)
(-0.0037686 -0.00649792 -0.00140238)
(-0.000394473 -0.00297396 -0.000603399)
(-0.000199848 0.00488738 -0.000244081)
(-0.00116678 0.00791266 -0.000266518)
(-0.00268118 0.00892345 -0.000267695)
(-0.00423821 0.00930643 -0.000259847)
(-0.00588764 0.00951522 -0.000256752)
(-0.00760072 0.00968682 -0.000259201)
(-0.00938379 0.00983988 -0.000268607)
(-0.0112441 0.00994713 -0.000288589)
(-0.0131793 0.0099551 -0.00032479)
(-0.0151688 0.0097854 -0.000385595)
(-0.0171587 0.00933209 -0.000483042)
(-0.0190405 0.00846261 -0.000633286)
(-0.0206261 0.00702969 -0.000854861)
(-0.0216217 0.00490225 -0.00116255)
(-0.0216136 0.00202686 -0.00155748)
(-0.0201438 -0.00146414 -0.00202535)
(-0.01676 -0.00504986 -0.00242446)
(-0.0115968 -0.00771411 -0.00258363)
(-0.00470702 -0.00794626 -0.00228062)
(-0.00036688 -0.00336489 -0.000986292)
(-0.000175794 0.00597957 -0.000260537)
(-0.00109949 0.00970146 -0.000291142)
(-0.00257471 0.0109499 -0.000294918)
(-0.00409607 0.011431 -0.000288182)
(-0.00571847 0.0117131 -0.000286833)
(-0.00741963 0.0119745 -0.000292613)
(-0.00921903 0.0122499 -0.000307853)
(-0.0111421 0.0125201 -0.000337418)
(-0.0132107 0.012735 -0.000388867)
(-0.0154349 0.0128132 -0.000473779)
(-0.0177962 0.0126346 -0.000609626)
(-0.0202196 0.012033 -0.000821839)
(-0.0225323 0.0107964 -0.00114375)
(-0.0244167 0.00869227 -0.0016091)
(-0.0253653 0.00553578 -0.0022378)
(-0.024647 0.00132183 -0.00302854)
(-0.0214781 -0.0034733 -0.00384808)
(-0.0156351 -0.00756937 -0.00432538)
(-0.00662592 -0.00873056 -0.0039746)
(-0.000526161 -0.00337957 -0.00176022)
(-0.000146847 0.00705666 -0.000278008)
(-0.0010153 0.0114924 -0.000317454)
(-0.00243427 0.0129865 -0.000323613)
(-0.00389656 0.0135707 -0.000317342)
(-0.00546059 0.0139363 -0.000316959)
(-0.00710932 0.0143107 -0.000325397)
(-0.00887489 0.0147525 -0.000346142)
(-0.010802 0.0152598 -0.000385643)
(-0.0129409 0.015799 -0.000453915)
(-0.0153408 0.0163029 -0.000566657)
(-0.0180356 0.016658 -0.000748765)
(-0.021015 0.0166864 -0.00103918)
(-0.0241717 0.0161294 -0.00149505)
(-0.027223 0.0146455 -0.00218913)
(-0.0296221 0.0118555 -0.00318792)
(-0.0304626 0.0074721 -0.00450233)
(-0.0284218 0.001559 -0.00606616)
(-0.0224803 -0.0047089 -0.00731374)
(-0.0109543 -0.0079808 -0.00710644)
(-0.00146227 -0.00298973 -0.00341868)
(-0.000114248 0.00811328 -0.000298053)
(-0.00091899 0.0132781 -0.000347335)
(-0.00226632 0.0150189 -0.00035531)
(-0.00364222 0.0156992 -0.000348023)
(-0.00510703 0.0161446 -0.000346696)
(-0.00664618 0.0166397 -0.000355706)
(-0.00830172 0.0172756 -0.000379893)
(-0.010135 0.0180789 -0.000427457)
(-0.0122225 0.019049 -0.000511114)
(-0.0146549 0.0201578 -0.000651277)
(-0.0175307 0.0213357 -0.000881508)
(-0.0209339 0.022447 -0.00125682)
(-0.0248889 0.0232568 -0.00186378)
(-0.0292769 0.0233849 -0.00282558)
(-0.0336976 0.0222601 -0.00428699)
(-0.0372459 0.019063 -0.00635237)
(-0.0381346 0.0127287 -0.00889207)
(-0.0337184 0.00318345 -0.0114082)
(-0.0202297 -0.00511115 -0.0119514)
(-0.0045649 -0.00272862 -0.00686077)
(-8.15436e-05 0.00915181 -0.000322609)
(-0.000822483 0.0150597 -0.00038296)
(-0.00208874 0.0170354 -0.000391793)
(-0.00334981 0.0177867 -0.00038109)
(-0.00466715 0.0182848 -0.000375677)
(-0.00602457 0.0188813 -0.000381623)
(-0.00746885 0.0197075 -0.000405255)
(-0.00907074 0.0208298 -0.000456457)
(-0.0109229 0.0222971 -0.000550303)
(-0.0131461 0.0241489 -0.000710976)
(-0.0158924 0.0264069 -0.000978562)
(-0.0193433 0.0290542 -0.00141911)
(-0.0236991 0.0319951 -0.00213426)
(-0.0291412 0.0349396 -0.00325795)
(-0.035747 0.0371341 -0.0049359)
(-0.0432199 0.0367811 -0.00730888)
(-0.049601 0.0303261 -0.0105231)
(-0.0500101 0.0148832 -0.0141982)
(-0.0370086 -0.00345058 -0.015793)
(-0.0115033 -0.00533743 -0.0118486)
(-5.63541e-05 0.0101901 -0.000355027)
(-0.000750064 0.0168547 -0.000427763)
(-0.0019387 0.0190336 -0.000435951)
(-0.00306041 0.0198029 -0.000418385)
(-0.00417945 0.020294 -0.000404357)
(-0.00527358 0.0209343 -0.000402045)
(-0.00638778 0.0218997 -0.000419161)
(-0.00758946 0.0233015 -0.000466759)
(-0.00896796 0.0252507 -0.000560961)
(-0.0106454 0.0278765 -0.000726317)
(-0.0127914 0.0313351 -0.00100115)
(-0.0156424 0.0357982 -0.00144047)
(-0.0195625 0.041414 -0.00209668)
(-0.0251448 0.0480204 -0.00294781)
(-0.0332821 0.0543759 -0.00387177)
(-0.0449765 0.0566875 -0.00485029)
(-0.0590284 0.0473081 -0.00677917)
(-0.0682455 0.0200444 -0.00980739)
(-0.0580678 -0.014452 -0.0109064)
(-0.0204779 -0.0207757 -0.0128822)
(-5.37477e-05 0.0112761 -0.000401757)
(-0.000746527 0.0187153 -0.000489465)
(-0.00188271 0.0210386 -0.000495905)
(-0.00284923 0.0217378 -0.000467267)
(-0.00372218 0.0221214 -0.000438396)
(-0.00447112 0.0227003 -0.000420821)
(-0.00513467 0.0236937 -0.00042375)
(-0.00576132 0.0252542 -0.000458645)
(-0.00640984 0.0275519 -0.000540658)
(-0.00715924 0.0308058 -0.00068846)
(-0.00813197 0.0353157 -0.000922271)
(-0.00952729 0.041433 -0.00124194)
(-0.0118117 0.0494907 -0.00153536)
(-0.0160783 0.059164 -0.00134653)
(-0.0244927 0.0681227 1.62474e-05)
(-0.040782 0.0695459 0.00275475)
(-0.0666495 0.0525133 0.00530819)
(-0.0893215 0.00578403 0.00799839)
(-0.0784335 -0.0505873 0.0103607)
(-0.027223 -0.0587605 -0.00407184)
(-0.000100268 0.0124928 -0.000472286)
(-0.000882776 0.0207048 -0.000574145)
(-0.0020215 0.0230532 -0.000572266)
(-0.00283115 0.0235391 -0.000524474)
(-0.0034199 0.0236749 -0.000473801)
(-0.00375159 0.0240488 -0.000435299)
(-0.00386036 0.0249047 -0.000418225)
(-0.00376363 0.0264196 -0.000432408)
(-0.00346536 0.0287985 -0.000490171)
(-0.00295644 0.0323046 -0.000596922)
(-0.00226453 0.0373376 -0.000741664)
(-0.00150021 0.0443223 -0.000825755)
(-0.00125741 0.0535946 -0.000496571)
(-0.00328509 0.0643603 0.00132999)
(-0.0121046 0.0732618 0.00594)
(-0.0357778 0.0710506 0.0140942)
(-0.0797873 0.0413384 0.0250898)
(-0.111923 -0.0393295 0.0367404)
(-0.0959927 -0.122915 0.0310369)
(-0.0346699 -0.123505 0.0054972)
(-0.000262582 0.0140569 -0.000603167)
(-0.00131473 0.0231181 -0.000737702)
(-0.00253659 0.0253802 -0.000735504)
(-0.00317446 0.0254907 -0.00066194)
(-0.00342867 0.0251729 -0.000572333)
(-0.00328519 0.0251078 -0.000492838)
(-0.002777 0.0255662 -0.000438217)
(-0.00188081 0.0267297 -0.000420684)
(-0.000545028 0.0287948 -0.000447085)
(0.00135993 0.03204 -0.000502056)
(0.003928 0.0368458 -0.000554156)
(0.00715784 0.0436063 -0.000414476)
(0.0102978 0.052594 0.000522326)
(0.0110603 0.0627692 0.00387151)
(0.00233174 0.0705181 0.0117774)
(-0.0289494 0.0633258 0.0254525)
(-0.0862517 0.012051 0.0433232)
(-0.119022 -0.11116 0.0473333)
(-0.112506 -0.203666 0.0256532)
(-0.0435327 -0.207203 0.000854901)
(-0.000587245 0.0164823 -0.000806891)
(-0.00209477 0.025816 -0.000922902)
(-0.00352388 0.0274399 -0.000888683)
(-0.00405326 0.0267064 -0.000761148)
(-0.00400945 0.0257343 -0.000629838)
(-0.00337653 0.0251573 -0.000515736)
(-0.00222042 0.0251616 -0.000433599)
(-0.000510672 0.0258371 -0.000393086)
(0.0018753 0.0273309 -0.000392322)
(0.00515761 0.0298561 -0.000431193)
(0.00952801 0.0337199 -0.000441397)
(0.015185 0.0391844 -0.00021866)
(0.0214283 0.0464716 0.00099919)
(0.0262506 0.0546671 0.00486626)
(0.0218368 0.0609542 0.0145171)
(-0.004523 0.0487578 0.0300683)
(-0.0611552 -0.0200748 0.044788)
(-0.0960605 -0.156639 0.0349479)
(-0.117626 -0.254145 0.0138668)
(-0.0455386 -0.287641 -0.0146036)
(-0.00195225 0.0188475 -0.00131189)
(-0.00480069 0.0303448 -0.00154557)
(-0.00599885 0.031503 -0.00145862)
(-0.00600077 0.0301584 -0.0012451)
(-0.00520126 0.0281401 -0.000995113)
(-0.00385393 0.0264626 -0.000768127)
(-0.0020186 0.0253689 -0.000595249)
(0.000415435 0.0249425 -0.000487418)
(0.00365057 0.0252972 -0.000454124)
(0.0080099 0.0264975 -0.000493101)
(0.0137711 0.0287617 -0.000546577)
(0.0213337 0.0321116 -0.000431965)
(0.030163 0.0366663 0.000610368)
(0.0394469 0.0413437 0.00378618)
(0.0421722 0.0452259 0.0122016)
(0.0323684 0.0327936 0.0256077)
(-0.0130299 -0.0349022 0.0353551)
(-0.0542517 -0.159373 0.0255938)
(-0.106427 -0.278875 0.00925722)
(-0.0412285 -0.348653 -0.030776)
(-0.00132219 0.0302721 -0.00232558)
(-0.00490744 0.0340355 -0.00223021)
(-0.00818233 0.0325116 -0.00200832)
(-0.00834491 0.0285431 -0.00152087)
(-0.00762216 0.0255998 -0.00115527)
(-0.00570073 0.0234906 -0.000841332)
(-0.00303468 0.0221051 -0.000614742)
(0.000385362 0.0212407 -0.00048359)
(0.00464637 0.0209187 -0.000469314)
(0.0100838 0.0210381 -0.00058663)
(0.0169261 0.0217955 -0.000774019)
(0.0257421 0.0229227 -0.000924831)
(0.0358293 0.0244851 -0.000428872)
(0.0479005 0.0249377 0.00139284)
(0.054571 0.0241866 0.00686203)
(0.058934 0.0126766 0.0163158)
(0.02511 -0.0379024 0.023313)
(-0.0110504 -0.142047 0.0214119)
(-0.087462 -0.278457 0.00355298)
(-0.0327464 -0.386482 -0.0445477)
(-0.0128294 0.0276032 -0.00308562)
(-0.0214399 0.048452 -0.00391211)
(-0.0152793 0.0441699 -0.00378301)
(-0.0132512 0.0391512 -0.00323186)
(-0.00869262 0.0331593 -0.00242179)
(-0.0037531 0.0282429 -0.00169383)
(0.00148197 0.0244089 -0.00115728)
(0.00710972 0.0214372 -0.000828645)
(0.0131174 0.0193042 -0.000722347)
(0.0201112 0.0176709 -0.000868565)
(0.0278442 0.0166936 -0.0011664)
(0.0374846 0.0157767 -0.00158532)
(0.0470974 0.0154009 -0.00168718)
(0.0599379 0.0135961 -0.000967828)
(0.0650656 0.0111009 0.0017895)
(0.077238 0.00118283 0.00805582)
(0.0518002 -0.0298223 0.0126343)
(0.0426502 -0.113813 0.0171874)
(-0.0525633 -0.261508 -0.00117633)
(-0.0122111 -0.398074 -0.0556256)
(-0.0466412 0.087585 -0.0125198)
(-0.0298829 0.0395834 -0.00899407)
(-0.0205221 0.0332388 -0.00691248)
(-0.00109938 0.0261521 -0.00494683)
(0.0152618 0.0197373 -0.00364081)
(0.0316281 0.0154184 -0.00264029)
(0.0458645 0.0126442 -0.00192973)
(0.0593675 0.0104906 -0.00150067)
(0.0708849 0.00909403 -0.00128687)
(0.0831484 0.00776736 -0.00134323)
(0.0929763 0.00721358 -0.00158144)
(0.106319 0.00620381 -0.00205349)
(0.114451 0.00583973 -0.0024668)
(0.132213 0.00377129 -0.0025557)
(0.133021 0.00020795 -0.00183741)
(0.156438 -0.0100344 0.00168731)
(0.129744 -0.0357125 0.00514164)
(0.152319 -0.0992638 0.0106937)
(0.0313583 -0.235079 -0.00368635)
(0.0356483 -0.365344 -0.0658076)
(0.117519 0.112296 -0.0111883)
(0.144105 0.0598918 -0.0118788)
(0.215957 0.0394953 -0.0117978)
(0.260794 0.0261959 -0.0106608)
(0.293407 0.017361 -0.00924177)
(0.321064 0.0113897 -0.00803886)
(0.341588 0.00767402 -0.00693017)
(0.361298 0.00512598 -0.00608278)
(0.373962 0.0036366 -0.00530669)
(0.390552 0.00243907 -0.00479126)
(0.397397 0.00187457 -0.00437787)
(0.414781 0.00126124 -0.00412096)
(0.415083 0.000972723 -0.00403353)
(0.436671 0.000189606 -0.0037449)
(0.424778 -0.0012052 -0.00358658)
(0.449958 -0.00487947 -0.00269031)
(0.405533 -0.0135032 -0.00176943)
(0.416089 -0.0324951 -0.00176008)
(0.249809 -0.0723941 -0.00988608)
(0.167197 -0.13797 -0.0756969)
(-0.000133409 0.000160645 -0.000132134)
(-0.000930639 0.000400004 -9.73113e-05)
(-0.00225286 0.000482934 -7.12276e-05)
(-0.0036081 0.000511361 -5.68717e-05)
(-0.00501264 0.000527102 -5.96347e-05)
(-0.0064296 0.000543417 -7.60189e-05)
(-0.00784371 0.000559833 -0.000105253)
(-0.00923219 0.00057123 -0.000149692)
(-0.0105559 0.000570672 -0.000213322)
(-0.0117564 0.000549775 -0.000300845)
(-0.0127527 0.000498903 -0.000416934)
(-0.013441 0.000408314 -0.000564895)
(-0.0136988 0.000271069 -0.000744579)
(-0.0133972 8.47868e-05 -0.000949881)
(-0.0124212 -0.00014626 -0.0011634)
(-0.0107072 -0.000395219 -0.00135568)
(-0.00830052 -0.000610695 -0.00148444)
(-0.00545286 -0.000714844 -0.00150142)
(-0.00234301 -0.000614649 -0.00136149)
(-0.000359153 -0.000158014 -0.000824039)
(-0.000390526 0.00108844 -0.000311551)
(-0.00199256 0.00211828 -0.000331767)
(-0.00441989 0.00248664 -0.000319098)
(-0.00690972 0.00261011 -0.000303294)
(-0.00946549 0.00265501 -0.00030248)
(-0.0120117 0.00267496 -0.000316171)
(-0.014506 0.00267196 -0.000345225)
(-0.0168978 0.00262881 -0.000393709)
(-0.0191143 0.0025201 -0.000467541)
(-0.0210558 0.00231522 -0.000573704)
(-0.0225919 0.00198057 -0.000719285)
(-0.0235608 0.00148396 -0.000909548)
(-0.0237801 0.000801833 -0.00114491)
(-0.0230674 -6.67347e-05 -0.00142005)
(-0.0212614 -0.00107807 -0.00171002)
(-0.0182766 -0.00212328 -0.00197046)
(-0.0142006 -0.00300482 -0.00214092)
(-0.00941984 -0.00342659 -0.00214898)
(-0.00422762 -0.00303286 -0.00191486)
(-0.000764622 -0.00125021 -0.00107086)
(-0.000494979 0.00265994 -0.000416609)
(-0.0024495 0.00482578 -0.000471215)
(-0.00536281 0.00559818 -0.000467337)
(-0.00833204 0.00584374 -0.00044947)
(-0.0113635 0.0059047 -0.00044383)
(-0.0143688 0.00589108 -0.000452075)
(-0.0172994 0.00581161 -0.000476437)
(-0.020099 0.00563633 -0.000522529)
(-0.0226885 0.00531816 -0.000598271)
(-0.0249594 0.0047993 -0.000713372)
(-0.0267691 0.0040164 -0.000878213)
(-0.0279398 0.00290922 -0.00110194)
(-0.0282626 0.00143588 -0.00138964)
(-0.0275083 -0.000399517 -0.00173571)
(-0.0254624 -0.00251613 -0.00211078)
(-0.0219902 -0.00469749 -0.0024599)
(-0.0171503 -0.00654847 -0.00269656)
(-0.0113884 -0.00745861 -0.00271344)
(-0.00505803 -0.00668402 -0.002397)
(-0.00087715 -0.00305378 -0.00129163)
(-0.000526112 0.00433004 -0.000496359)
(-0.00261894 0.00771097 -0.000580519)
(-0.00573584 0.00889811 -0.000584651)
(-0.00890275 0.00925759 -0.000566213)
(-0.0121369 0.00932746 -0.00055807)
(-0.0153508 0.00927892 -0.000563836)
(-0.0185027 0.00912911 -0.000587242)
(-0.0215447 0.00883718 -0.000635766)
(-0.0244059 0.0083357 -0.000719942)
(-0.0269847 0.00753906 -0.000853318)
(-0.0291389 0.00634969 -0.00105168)
(-0.0306781 0.00467009 -0.00133083)
(-0.0313599 0.00242636 -0.00170278)
(-0.0309045 -0.000394845 -0.0021691)
(-0.0290013 -0.00369105 -0.00270352)
(-0.0253839 -0.00716155 -0.00322234)
(-0.0200035 -0.0101879 -0.00360015)
(-0.0133311 -0.0117571 -0.00365835)
(-0.00577404 -0.0106079 -0.00321527)
(-0.000889754 -0.00482739 -0.00168159)
(-0.000524591 0.00608262 -0.000557922)
(-0.00266076 0.0107541 -0.000668646)
(-0.00586273 0.0123794 -0.000680212)
(-0.00911877 0.0128626 -0.000662769)
(-0.012458 0.0129543 -0.000655337)
(-0.015801 0.0128934 -0.000663594)
(-0.019121 0.0127094 -0.000693088)
(-0.0223878 0.0123535 -0.000753776)
(-0.02555 0.0117399 -0.000859855)
(-0.0285241 0.0107542 -0.00103045)
(-0.0311785 0.00925786 -0.00128976)
(-0.0333165 0.00710012 -0.00166519)
(-0.0346593 0.00414482 -0.00218182)
(-0.0348373 0.000321381 -0.00285128)
(-0.0334071 -0.0042802 -0.00365597)
(-0.0299007 -0.00930673 -0.00449861)
(-0.0240302 -0.0138934 -0.00516538)
(-0.0162087 -0.0164863 -0.00534336)
(-0.00684138 -0.0150465 -0.00468705)
(-0.000881347 -0.00664317 -0.00235705)
(-0.000509841 0.00786297 -0.000610984)
(-0.00265016 0.0138798 -0.000747372)
(-0.00588972 0.015967 -0.000766409)
(-0.00919351 0.0165905 -0.000751252)
(-0.0126017 0.0167284 -0.000746971)
(-0.0160467 0.016696 -0.000761583)
(-0.0195224 0.016541 -0.000802918)
(-0.0230243 0.0162123 -0.000884173)
(-0.0265315 0.0156099 -0.00102454)
(-0.0299924 0.014592 -0.00125106)
(-0.0333033 0.0129742 -0.00160049)
(-0.0362779 0.0105355 -0.00211937)
(-0.0386106 0.0070426 -0.00285768)
(-0.0398428 0.00231362 -0.00385303)
(-0.0393638 -0.00366781 -0.00512539)
(-0.0364102 -0.0105628 -0.0065629)
(-0.0302685 -0.0172904 -0.00781401)
(-0.0210408 -0.0216307 -0.00831028)
(-0.00884098 -0.0202488 -0.0073106)
(-0.000933677 -0.00856982 -0.00349137)
(-0.000488348 0.00965067 -0.00066372)
(-0.00261481 0.01706 -0.000827051)
(-0.00586956 0.0196329 -0.000853722)
(-0.00919759 0.0204147 -0.000840944)
(-0.012649 0.0206266 -0.000840212)
(-0.0161696 0.0206708 -0.000862327)
(-0.0197784 0.0206223 -0.000917969)
(-0.0235044 0.0204366 -0.00102441)
(-0.0273684 0.0200088 -0.00120735)
(-0.0313698 0.0191772 -0.00150484)
(-0.0354599 0.0177143 -0.00197211)
(-0.0394995 0.0153193 -0.00268625)
(-0.043198 0.0116285 -0.00374432)
(-0.0460486 0.00627318 -0.00524898)
(-0.0472914 -0.000976102 -0.00726456)
(-0.045814 -0.00992618 -0.00971393)
(-0.0402443 -0.0196047 -0.0121154)
(-0.0297579 -0.0271443 -0.0133439)
(-0.0132779 -0.0269496 -0.0118554)
(-0.0013887 -0.0111744 -0.00544677)
(-0.000461629 0.0114377 -0.000721415)
(-0.00256316 0.0202853 -0.000914577)
(-0.00581718 0.0233645 -0.000948519)
(-0.00914453 0.0243163 -0.000936456)
(-0.0126035 0.0246235 -0.00093711)
(-0.0161535 0.0247881 -0.000964556)
(-0.0198404 0.0249238 -0.0010328)
(-0.0237324 0.0250065 -0.00116393)
(-0.0279044 0.0249432 -0.0013916)
(-0.0324275 0.0245719 -0.00176774)
(-0.0373439 0.0236413 -0.00237275)
(-0.0426224 0.0217845 -0.00332855)
(-0.0480814 0.0185045 -0.00480761)
(-0.0532829 0.0131965 -0.00701638)
(-0.0574223 0.00525564 -0.0101207)
(-0.0592468 -0.00569281 -0.014131)
(-0.0564871 -0.0193492 -0.018216)
(-0.0460545 -0.0331841 -0.0205406)
(-0.0238372 -0.0374426 -0.0184517)
(-0.00334561 -0.0164867 -0.00886769)
(-0.000431367 0.0132208 -0.000788507)
(-0.00250216 0.0235524 -0.00101577)
(-0.0057421 0.0271491 -0.00105579)
(-0.00903711 0.0282676 -0.00104071)
(-0.012452 0.0286737 -0.00103771)
(-0.0159569 0.0289842 -0.00106457)
(-0.0196241 0.0293658 -0.00113888)
(-0.0235623 0.0298322 -0.00128769)
(-0.0279064 0.0303262 -0.00155295)
(-0.0328163 0.0307199 -0.002002)
(-0.0384633 0.0307841 -0.00274475)
(-0.0449978 0.0301469 -0.0039582)
(-0.0524914 0.0282493 -0.00590942)
(-0.0608522 0.0243006 -0.00893945)
(-0.069672 0.0171648 -0.0133029)
(-0.0777087 0.00500798 -0.0186381)
(-0.0816866 -0.014802 -0.0234299)
(-0.0742508 -0.0417737 -0.0252787)
(-0.0458431 -0.0584113 -0.022935)
(-0.0089662 -0.0301643 -0.0141152)
(-0.000402243 0.0150054 -0.000870558)
(-0.00244746 0.0268677 -0.0011377)
(-0.00566677 0.030976 -0.00118165)
(-0.0088928 0.0322322 -0.00115757)
(-0.0121959 0.0327099 -0.00114276)
(-0.0155524 0.0331579 -0.0011591)
(-0.0190563 0.0338104 -0.00122765)
(-0.0228511 0.0347382 -0.00137966)
(-0.0271275 0.0359498 -0.00166372)
(-0.0321348 0.0373972 -0.0021594)
(-0.0381895 0.0389469 -0.00300008)
(-0.04568 0.040333 -0.00440303)
(-0.0550756 0.041091 -0.00667646)
(-0.0669512 0.0403456 -0.0100945)
(-0.0818938 0.035986 -0.0144379)
(-0.0994281 0.0227563 -0.0181072)
(-0.114028 -0.00898747 -0.0180444)
(-0.111525 -0.0620971 -0.0143078)
(-0.0777969 -0.102762 -0.0144769)
(-0.0195852 -0.0639944 -0.0180361)
(-0.000384425 0.0168156 -0.000976422)
(-0.00243118 0.0302547 -0.0012907)
(-0.00563949 0.0348385 -0.00133493)
(-0.0087608 0.0361639 -0.0012933)
(-0.0118736 0.0366413 -0.00125529)
(-0.0149543 0.0371678 -0.00124731)
(-0.0181098 0.0380556 -0.00129311)
(-0.0215045 0.0394477 -0.00142596)
(-0.0253633 0.041446 -0.00169627)
(-0.029999 0.0441321 -0.00218488)
(-0.0358493 0.0475553 -0.0030223)
(-0.0435254 0.0516925 -0.00439094)
(-0.0539295 0.056325 -0.00640313)
(-0.0684855 0.0603292 -0.00861221)
(-0.0889251 0.0591899 -0.00908827)
(-0.115269 0.0411172 -0.00380297)
(-0.139209 -0.0123608 0.0096397)
(-0.140249 -0.103554 0.0217017)
(-0.103535 -0.17153 0.0106389)
(-0.0306671 -0.130619 -0.0118321)
(-0.000399268 0.0187151 -0.00112234)
(-0.00251588 0.0337904 -0.0014958)
(-0.00575118 0.0387812 -0.00153774)
(-0.00873779 0.0400584 -0.00146817)
(-0.0115766 0.0404029 -0.00139144)
(-0.0142406 0.0408771 -0.00134071)
(-0.0168407 0.0418774 -0.00134225)
(-0.0195386 0.0436253 -0.00142855)
(-0.0225543 0.0463289 -0.00164424)
(-0.0262021 0.0502299 -0.00205118)
(-0.0309483 0.0556154 -0.00272269)
(-0.0374783 0.0627479 -0.00365393)
(-0.0468986 0.0715159 -0.00436954)
(-0.0612132 0.0798099 -0.00287469)
(-0.0829541 0.0791681 0.00516489)
(-0.11312 0.0509347 0.025356)
(-0.14409 -0.0269065 0.0547599)
(-0.148658 -0.149185 0.0654966)
(-0.114263 -0.234792 0.0347583)
(-0.0359427 -0.215126 0.0025341)
(-0.00047933 0.020787 -0.00133074)
(-0.00278626 0.037497 -0.00176674)
(-0.00612958 0.0427074 -0.00179069)
(-0.00897654 0.0437307 -0.00167538)
(-0.0114717 0.0437646 -0.0015446)
(-0.0135809 0.0440179 -0.00143679)
(-0.0154169 0.0449419 -0.00137716)
(-0.017117 0.0468167 -0.00139233)
(-0.018848 0.0499411 -0.00151393)
(-0.0208424 0.0546884 -0.00176268)
(-0.0234757 0.0615379 -0.00210558)
(-0.0273331 0.070903 -0.00222029)
(-0.0334645 0.0825094 -0.000835181)
(-0.0442755 0.0928209 0.00569602)
(-0.0634641 0.0904452 0.0235784)
(-0.0943652 0.0529935 0.0575401)
(-0.132604 -0.0395873 0.0932339)
(-0.137879 -0.178649 0.0863579)
(-0.113751 -0.279016 0.0388095)
(-0.0333954 -0.294435 0.00588931)
(-0.000728435 0.0233372 -0.00167593)
(-0.00350384 0.0419322 -0.00222594)
(-0.00706532 0.0472771 -0.00224539)
(-0.00970616 0.0478438 -0.00206891)
(-0.0117348 0.0472429 -0.00184712)
(-0.0131569 0.0468992 -0.00163962)
(-0.0140772 0.0473434 -0.00148042)
(-0.014572 0.0489016 -0.00139655)
(-0.0147185 0.0519175 -0.00140212)
(-0.0146071 0.0568226 -0.00146396)
(-0.0144379 0.0641776 -0.0014516)
(-0.0145258 0.0743781 -0.000744617)
(-0.0157772 0.0869983 0.00252186)
(-0.0205789 0.0975637 0.0131168)
(-0.0343912 0.0943807 0.0379012)
(-0.0625204 0.053301 0.0774361)
(-0.103096 -0.0446191 0.106436)
(-0.104747 -0.193641 0.0782213)
(-0.104565 -0.309262 0.0304503)
(-0.0249189 -0.364905 -0.00548021)
(-0.00110657 0.0267947 -0.00216963)
(-0.00443066 0.0462248 -0.00274887)
(-0.00850242 0.0508031 -0.00271111)
(-0.0111433 0.0502211 -0.00242566)
(-0.0128338 0.0488267 -0.00211063)
(-0.0135287 0.0479208 -0.0018146)
(-0.0134032 0.0479044 -0.00157198)
(-0.0125225 0.0490068 -0.00140422)
(-0.0108851 0.0515314 -0.00130956)
(-0.00841122 0.0558816 -0.00124916)
(-0.00510117 0.0626003 -0.0010155)
(-0.000855332 0.0719913 0.000103926)
(0.00363156 0.083692 0.00412625)
(0.00703445 0.0934208 0.0156581)
(0.00288523 0.0912644 0.0414554)
(-0.012909 0.0534617 0.0773756)
(-0.0480833 -0.040143 0.0948876)
(-0.0505911 -0.182314 0.0599901)
(-0.0828352 -0.316093 0.0227842)
(-0.0109981 -0.419213 -0.0193331)
(-0.00320199 0.029858 -0.0031794)
(-0.00875086 0.0538701 -0.00401747)
(-0.0122974 0.0582289 -0.0039084)
(-0.0140734 0.0569234 -0.00349083)
(-0.0145633 0.0538786 -0.00296311)
(-0.0141768 0.0512668 -0.00245066)
(-0.0129706 0.0496116 -0.00201827)
(-0.010854 0.0491538 -0.00169542)
(-0.00765682 0.050136 -0.00149478)
(-0.00309501 0.0528111 -0.00136757)
(0.003037 0.0576297 -0.00111109)
(0.0112846 0.0646931 -0.000140136)
(0.0211168 0.0737251 0.00329146)
(0.0326109 0.0811283 0.0124194)
(0.0390001 0.0805912 0.0331149)
(0.0419413 0.0518613 0.0609835)
(0.014547 -0.0279804 0.0710813)
(0.00827722 -0.14912 0.0459828)
(-0.052529 -0.303999 0.0171335)
(0.00760733 -0.453793 -0.0320592)
(-0.00130835 0.0443724 -0.00514671)
(-0.00742002 0.0572878 -0.00569931)
(-0.0154976 0.0578709 -0.00524879)
(-0.0175582 0.0531707 -0.00433028)
(-0.0184472 0.0495759 -0.00359443)
(-0.0173666 0.0469546 -0.00291453)
(-0.0150264 0.0452613 -0.002359)
(-0.0114177 0.0443706 -0.00195469)
(-0.00647506 0.0444339 -0.00174249)
(0.000165385 0.0455096 -0.00169383)
(0.00874579 0.048102 -0.00165944)
(0.0200714 0.0520197 -0.00126823)
(0.0334565 0.0571263 0.000799982)
(0.0506242 0.060487 0.00623715)
(0.0628999 0.0585845 0.0190865)
(0.0799565 0.0389401 0.0380083)
(0.0595488 -0.0199678 0.0447669)
(0.0583735 -0.111877 0.0350705)
(-0.0193756 -0.280308 0.0123656)
(0.0341086 -0.467666 -0.0437115)
(-0.0124501 0.034933 -0.00603004)
(-0.0235536 0.0781391 -0.00796438)
(-0.0206513 0.0763649 -0.00814051)
(-0.0240476 0.0704719 -0.00731683)
(-0.022636 0.0625195 -0.00594951)
(-0.0194933 0.0557886 -0.00463207)
(-0.0145865 0.0503723 -0.0035903)
(-0.00819639 0.0461218 -0.00287459)
(-0.000530197 0.0430988 -0.00253633)
(0.00889773 0.0409994 -0.00255429)
(0.0197506 0.0401837 -0.00284018)
(0.0332506 0.0401145 -0.00312979)
(0.0475261 0.0414152 -0.00263366)
(0.0668422 0.041306 -0.000149529)
(0.0784443 0.0394762 0.00574541)
(0.102755 0.0278562 0.0178372)
(0.0885398 -0.00764595 0.0206612)
(0.109975 -0.0722251 0.0223004)
(0.0367396 -0.252308 0.00769703)
(0.0776527 -0.460273 -0.0544284)
(-0.0763075 0.0992082 -0.0200686)
(-0.0610986 0.0599765 -0.0163184)
(-0.0601791 0.0591691 -0.0132253)
(-0.0370951 0.0512507 -0.0105005)
(-0.0175904 0.0432735 -0.00860331)
(0.00409181 0.0373908 -0.0069926)
(0.0242211 0.0331761 -0.00578973)
(0.0444658 0.0295909 -0.00495896)
(0.0626361 0.0270714 -0.00447483)
(0.0823096 0.0246784 -0.00439145)
(0.0986069 0.0234688 -0.00464105)
(0.119894 0.0220397 -0.00518603)
(0.133509 0.0215431 -0.00575888)
(0.161439 0.020428 -0.00541707)
(0.16778 0.0159126 -0.004129)
(0.206345 0.00833207 0.000731915)
(0.190446 -0.0228372 0.00534302)
(0.231895 -0.072483 0.00737799)
(0.15529 -0.232101 0.00247804)
(0.150417 -0.412674 -0.0654732)
(0.119084 0.140154 -0.0171561)
(0.151434 0.085526 -0.0190061)
(0.228627 0.0630855 -0.0192464)
(0.283428 0.047599 -0.0179962)
(0.324592 0.0367074 -0.0162569)
(0.362649 0.0286464 -0.0147249)
(0.391122 0.0230281 -0.0132235)
(0.421972 0.0187695 -0.0121173)
(0.441272 0.0157452 -0.0109123)
(0.469439 0.0133287 -0.0103264)
(0.481053 0.0115294 -0.00941423)
(0.510284 0.0101766 -0.00943817)
(0.513841 0.00893328 -0.0085926)
(0.546953 0.00787194 -0.00915088)
(0.539275 0.00594196 -0.00744559)
(0.574357 0.0020262 -0.00836611)
(0.54144 -0.00639125 -0.0046729)
(0.55426 -0.0255623 -0.00974287)
(0.424463 -0.0672155 -0.0112461)
(0.302579 -0.144458 -0.0785066)
(-0.000146502 0.00015281 -0.000205838)
(-0.0010641 0.000438137 -0.000235502)
(-0.00259744 0.000540063 -0.000228214)
(-0.00416102 0.00057252 -0.000222788)
(-0.00577005 0.000586615 -0.000233174)
(-0.00738102 0.00059958 -0.000260315)
(-0.00897704 0.000611355 -0.000305914)
(-0.010533 0.000616087 -0.00037393)
(-0.0120056 0.000605756 -0.000469719)
(-0.0133308 0.000570602 -0.00059913)
(-0.0144202 0.000499385 -0.000767472)
(-0.0151602 0.000380758 -0.000977694)
(-0.0154171 0.000206603 -0.00122775)
(-0.0150469 -2.79871e-05 -0.00150779)
(-0.0139205 -0.000313854 -0.0017937)
(-0.0119647 -0.000618053 -0.00204952)
(-0.00922886 -0.000875384 -0.00222595)
(-0.00600147 -0.000986634 -0.00226863)
(-0.00250282 -0.000832595 -0.002111)
(-0.000342208 -0.000234276 -0.00140026)
(-0.000467409 0.0011611 -0.00038629)
(-0.00239357 0.00238402 -0.000492844)
(-0.00531034 0.00283111 -0.000501081)
(-0.00828446 0.00296917 -0.000493708)