/*--------------------------------*- C++ -*----------------------------------*\
  =========                 |
  \\      /  F ield         | OpenFOAM: The Open Source CFD Toolbox
   \\    /   O peration     | Website:  https://openfoam.org
    \\  /    A nd           | Version:  10
     \\/     M anipulation  |
\*---------------------------------------------------------------------------*/
FoamFile
{
    format      ascii;
    class       volScalarField;
    location    "2.5";
    object      p;
}
// * * * * * * * * * * * * * * * * * * * * * * * * * * * * * * * * * * * * * //

dimensions      [0 2 -2 0 0 0 0];

internalField   nonuniform List<scalar> 
8000
(
3.35239e-06
-4.27654e-06
4.1658e-05
0.000122769
0.000242514
0.000400097
0.000593477
0.000819705
0.00107472
0.00135322
0.00164867
0.00195312
0.00225729
0.00255085
0.00282267
0.00306143
0.00325616
0.00339734
0.00348317
0.0034856
1.39295e-05
3.33229e-06
4.85198e-05
0.000127847
0.000245311
0.000400331
0.000591071
0.000814791
0.00106763
0.00134449
0.00163886
0.00194291
0.00224754
0.00254229
0.00281587
0.00305674
0.00325362
0.00339674
0.0034848
0.00348668
-3.56654e-05
-4.91811e-05
-4.50009e-06
7.47273e-05
0.000192885
0.000349539
0.000543057
0.000770937
0.00102953
0.00131388
0.00161767
0.00193316
0.00225071
0.00255953
0.00284773
0.00310282
0.00331239
0.00346535
0.00355994
0.00356117
-0.000127981
-0.000143973
-9.93757e-05
-1.95388e-05
0.000100525
0.0002607
0.000459704
0.000695398
0.00096447
0.00126223
0.00158245
0.00191729
0.00225708
0.00259022
0.00290364
0.00318336
0.00341502
0.00358536
0.00369157
0.0036938
-0.000268119
-0.000286985
-0.000242167
-0.000160994
-3.76878e-05
0.00012809
0.000335544
0.000583034
0.000867712
0.00118528
0.00152971
0.00189314
0.0022656
0.00263466
0.00298573
0.00330257
0.00356793
0.00376509
0.00388939
0.00389408
-0.000459058
-0.000481562
-0.000436434
-0.000353511
-0.000225989
-5.2929e-05
0.000165524
0.000428406
0.000733508
0.00107708
0.00145351
0.00185506
0.00227155
0.00268956
0.00309269
0.00346172
0.00377533
0.00401161
0.00416273
0.00417196
-0.000704377
-0.000731558
-0.000686324
-0.000601684
-0.000469512
-0.000288098
-5.6732e-05
0.000224512
0.000554301
0.000929691
0.00134573
0.00179505
0.00226765
0.00274919
0.00322129
0.00366112
0.00404181
0.0043339
0.00452415
0.00454138
-0.00100864
-0.00104186
-0.000997092
-0.000911324
-0.000774753
-0.000584686
-0.000339321
-3.75862e-05
0.000320334
0.000732622
0.00119537
0.001702
0.00224331
0.00280447
0.00336539
0.00389923
0.00437192
0.00474327
0.00499068
0.00502215
-0.00137744
-0.00141843
-0.00137513
-0.0012895
-0.0011496
-0.000951534
-0.000692117
-0.000368861
1.9495e-05
0.000472626
0.000988142
0.00156083
0.00218338
0.00284135
0.0035139
0.00417048
0.00476857
0.00525298
0.00558481
0.00564243
-0.00181756
-0.0018685
-0.00182815
-0.00174466
-0.00160347
-0.00139914
-0.00112683
-0.00078236
-0.000362749
0.000133521
0.000706126
0.00135185
0.00206682
0.00283857
0.00364779
0.00446184
0.00522965
0.00587688
0.00633555
0.00644445
-0.00233744
-0.00240093
-0.00236542
-0.00228688
-0.00214743
-0.00193974
-0.00165699
-0.00129307
-0.00084317
-0.00030368
0.000327848
0.00105282
0.00186536
0.00276488
0.00373568
0.00474696
0.00574154
0.00662546
0.00727802
0.00749165
-0.00294799
-0.00302689
-0.00299832
-0.00292815
-0.0027944
-0.00258732
-0.00229773
-0.00191753
-0.00144017
-0.000860233
-0.000172848
0.000626564
0.00154085
0.00257577
0.00372788
0.0049769
0.00626774
0.00749528
0.00845034
0.00888201
-0.00366457
-0.00376085
-0.00374102
-0.00368287
-0.00355942
-0.00335762
-0.00306548
-0.00267297
-0.00217232
-0.0015572
-0.000821143
4.35454e-05
0.00104818
0.00221221
0.00355017
0.00506696
0.00672851
0.00844588
0.00987934
0.0107689
-0.00451411
-0.00462482
-0.0046127
-0.00456897
-0.00446013
-0.00426807
-0.00397728
-0.00357596
-0.00305622
-0.00241241
-0.00163827
-0.000723405
0.000351541
0.00160779
0.00309879
0.00487705
0.00696244
0.00935104
0.0115107
0.0134368
-0.0055152
-0.00564114
-0.005636
-0.00560839
-0.00551693
-0.00533687
-0.00504897
-0.00463974
-0.00410249
-0.00343527
-0.00263669
-0.00170252
-0.000621926
0.000623973
0.00219237
0.00415335
0.00663254
0.00990907
0.0131588
0.0171998
-0.00687208
-0.00685951
-0.00683011
-0.00679916
-0.0067299
-0.00657193
-0.00629112
-0.00587083
-0.00531062
-0.00461683
-0.00379733
-0.00285159
-0.00176186
-0.000461664
0.00107272
0.0030318
0.00560238
0.00964943
0.0139942
0.0218743
-0.00823292
-0.00853145
-0.00844062
-0.00844947
-0.00835131
-0.00813564
-0.00778666
-0.00730108
-0.0066851
-0.00595201
-0.00512577
-0.00422969
-0.00329347
-0.00232376
-0.00131612
1.36352e-05
0.00167298
0.00672277
0.011913
0.0268432
-0.0120781
-0.00964108
-0.0095569
-0.0093623
-0.00934889
-0.00925887
-0.00902342
-0.00859966
-0.00799354
-0.00723267
-0.00637251
-0.00545399
-0.004559
-0.00371495
-0.00305661
-0.00230658
-0.00173718
0.00329884
0.00887143
0.0337703
-0.0127476
-0.0139698
-0.0131812
-0.0131939
-0.0128032
-0.0122311
-0.0115291
-0.0107022
-0.00978458
-0.00879111
-0.00779681
-0.0068366
-0.00607639
-0.00562055
-0.00585797
-0.00628447
-0.00915517
-0.00340117
-0.000165512
0.0482622
-0.0359383
-0.0116926
-0.0113062
-0.0108945
-0.0107256
-0.0107124
-0.0105676
-0.0101695
-0.00955075
-0.00872061
-0.00786193
-0.00688556
-0.00618337
-0.00538852
-0.00516922
-0.00378511
-0.001445
0.0136206
0.0429104
0.129205
8.66449e-06
-8.79182e-06
3.5851e-05
0.000116373
0.000236387
0.000394687
0.000589065
0.00081653
0.00107303
0.00135325
0.0016505
0.00195695
0.00226321
0.00255888
0.00283273
0.00307324
0.00326914
0.0034103
0.00349524
0.00348824
2.58724e-05
6.89721e-06
5.11787e-05
0.00012949
0.000246474
0.000401251
0.000591869
0.000815583
0.00106854
0.00134564
0.00164041
0.00194508
0.00225044
0.002546
0.00282043
0.00306203
0.00325925
0.00340178
0.00348892
0.00348072
-2.20591e-05
-4.43929e-05
-5.31563e-07
7.76053e-05
0.000195167
0.000351435
0.000544681
0.000772404
0.00103098
0.00131546
0.00161952
0.00193551
0.00225369
0.00256328
0.00285231
0.00310814
0.00331804
0.00347033
0.0035639
0.00355391
-0.000112294
-0.000137657
-9.38656e-05
-1.52133e-05
0.000104146
0.000263809
0.000462402
0.000697798
0.000966715
0.00126451
0.00158499
0.00192015
0.00226047
0.00259433
0.00290858
0.00318906
0.00342107
0.00359062
0.00369567
0.00368539
-0.000250395
-0.000279344
-0.00023533
-0.000155416
-3.2877e-05
0.000132328
0.00033931
0.000586447
0.000870925
0.00118848
0.00153312
0.00189696
0.00227003
0.0026399
0.00299192
0.00330966
0.00357547
0.00377176
0.00389469
0.00388514
-0.000438956
-0.000472458
-0.000428127
-0.000346538
-0.000219835
-4.73901e-05
0.00017056
0.000433069
0.000737968
0.00108154
0.00145821
0.00186032
0.00227759
0.00269664
0.00310098
0.00347122
0.0037855
0.00402088
0.00417038
0.00416296
-0.000681269
-0.00072059
-0.000676141
-0.000592932
-0.000461651
-0.000280907
-5.00824e-05
0.000230776
0.000560378
0.000935828
0.00135223
0.00180232
0.00227595
0.00275889
0.00323268
0.00367426
0.0040561
0.00434741
0.00453581
0.00453338
-0.000981665
-0.00102843
-0.000984432
-0.000900235
-0.000764673
-0.000575375
-0.000330622
-2.93038e-05
0.000328448
0.000740882
0.00120417
0.00171189
0.00225463
0.00281779
0.0033812
0.00391774
0.00439255
0.00476358
0.00500896
0.00501674
-0.00134543
-0.00140168
-0.00135916
-0.00127532
-0.00113664
-0.00093952
-0.000680857
-0.000358099
3.00865e-05
0.000483456
0.000999747
0.00157401
0.00219858
0.00285949
0.00353586
0.00419686
0.00479889
0.00528432
0.00561426
0.00564376
-0.0017789
-0.00184723
-0.00180769
-0.00172636
-0.00158677
-0.00138373
-0.00111245
-0.000768652
-0.000349277
0.000147299
0.000720921
0.00136893
0.00208675
0.00286294
0.00367815
0.00449959
0.00527487
0.00592628
0.00638391
0.00646006
-0.00228978
-0.00237337
-0.00233881
-0.00226307
-0.0021259
-0.00192014
-0.00163892
-0.00127604
-0.000826556
-0.000286762
0.000345799
0.00107191
0.00189056
0.00279696
0.00377715
0.00480079
0.00580939
0.00670461
0.00735893
0.00753894
-0.00288772
-0.00299028
-0.00296308
-0.00289691
-0.00276669
-0.0025627
-0.00227558
-0.00189707
-0.00142047
-0.000840201
-0.000151219
0.000651449
0.00157245
0.00261699
0.0037832
0.00505238
0.00636877
0.00762308
0.00858736
0.00900472
-0.00358552
-0.00371055
-0.00369324
-0.00364149
-0.00352395
-0.00332733
-0.00303934
-0.00264967
-0.00215043
-0.00153497
-0.00079614
7.53579e-05
0.00108819
0.00226341
0.00362081
0.00516838
0.00687346
0.00864682
0.0101121
0.0110671
-0.00440575
-0.00455341
-0.00454617
-0.00451359
-0.0044153
-0.00423232
-0.00394858
-0.00355207
-0.00303493
-0.00239133
-0.00161439
-0.000692896
0.000392739
0.00166137
0.00317835
0.00499771
0.0071477
0.00963782
0.0118872
0.014152
-0.00535016
-0.00553563
-0.00554161
-0.00553615
-0.00546389
-0.00529926
-0.00502296
-0.00462159
-0.00408909
-0.00342314
-0.00262271
-0.00168329
-0.000591213
0.000690603
0.00227724
0.00426273
0.00681301
0.0102431
0.0136401
0.0185835
-0.00661459
-0.00666071
-0.00666828
-0.00668095
-0.00665598
-0.00653348
-0.00627835
-0.00587453
-0.00532224
-0.00463013
-0.00380763
-0.00285429
-0.00175551
-0.000464267
0.00107946
0.00300007
0.00549597
0.00958994
0.0137646
0.0233694
-0.00774303
-0.00831673
-0.00825795
-0.00837698
-0.00834876
-0.00817509
-0.00785174
-0.00737882
-0.00676588
-0.00602895
-0.00519661
-0.00429521
-0.00336497
-0.00242037
-0.00148716
-0.0003801
0.000721543
0.0051792
0.0089538
0.0267302
-0.0112356
-0.00900427
-0.00910161
-0.00909428
-0.00926002
-0.00929664
-0.00914146
-0.00875976
-0.00816849
-0.00740066
-0.00652547
-0.00558429
-0.00468862
-0.00389445
-0.00347547
-0.00328357
-0.00430554
-0.000842527
0.00220175
0.0318795
-0.00989641
-0.0129706
-0.0127323
-0.0133532
-0.0132592
-0.0128571
-0.0121872
-0.0113337
-0.0103523
-0.00926967
-0.00819505
-0.00715949
-0.00635499
-0.00594019
-0.00645429
-0.00756068
-0.0125522
-0.00918271
-0.0044641
0.0487915
-0.033073
-0.00966649
-0.00988742
-0.0102348
-0.010532
-0.0107551
-0.0107757
-0.0104494
-0.00986094
-0.00898962
-0.0081303
-0.00706706
-0.00643478
-0.00562842
-0.00579676
-0.00492231
-0.00316355
0.0125913
0.0518333
0.150915
1.31996e-05
-6.97311e-06
3.6873e-05
0.000116769
0.000236538
0.000394841
0.000589413
0.000817228
0.00107416
0.00135492
0.00165287
0.0019603
0.00226756
0.00256422
0.00283898
0.00308023
0.00327653
0.00341754
0.00350202
0.00349215
3.27015e-05
1.09915e-05
5.46025e-05
0.00013219
0.000248719
0.000403213
0.000593679
0.00081736
0.00107039
0.00134764
0.00164245
0.0019479
0.00225389
0.00255008
0.00282511
0.00306718
0.0032646
0.00340684
0.00349353
0.00348269
-1.42457e-05
-3.94113e-05
3.81397e-06
8.11691e-05
0.000198207
0.00035411
0.000547112
0.000774712
0.00103328
0.00131789
0.001622
0.00193862
0.00225736
0.00256757
0.0028572
0.00311354
0.00332365
0.00347564
0.00356872
0.00355575
-0.000103061
-0.000131432
-8.82808e-05
-1.0477e-05
0.00010827
0.000267464
0.000465704
0.000700872
0.000969712
0.00126766
0.0015889
0.0019239
0.00226465
0.00259912
0.00291402
0.00319507
0.00342734
0.00359659
0.00370112
0.00368757
-0.000239555
-0.000271765
-0.000228424
-0.00014944
-2.75958e-05
0.000137052
0.000343595
0.000590426
0.000874756
0.00119236
0.00153728
0.00190147
0.0022751
0.00264571
0.00299854
0.00331702
0.00358325
0.00377929
0.00390169
0.00388851
-0.00042615
-0.000463243
-0.000419638
-0.000339087
-0.000213182
-4.13936e-05
0.000176025
0.000438151
0.000742845
0.00108643
0.00146333
0.00186596
0.00228397
0.00270398
0.00310942
0.00348072
0.00379573
0.00403102
0.00418002
0.00416854
-0.000665952
-0.00070928
-0.000665636
-0.000583617
-0.000453283
-0.000273342
-4.31787e-05
0.000237193
0.000566525
0.000941965
0.00135866
0.00180941
0.00228404
0.0027683
0.00324366
0.00368686
0.00406999
0.00436157
0.00454958
0.00454204
-0.000963074
-0.00101437
-0.000971295
-0.000888518
-0.000754134
-0.000565866
-0.00032198
-2.1314e-05
0.000336061
0.000748456
0.00121211
0.00172069
0.00226477
0.00282979
0.00339551
0.0039346
0.00441169
0.00478379
0.00502922
0.00503092
-0.0013225
-0.00138394
-0.00134253
-0.00126046
-0.00112334
-0.000927621
-0.000670162
-0.00034833
3.92866e-05
0.000492533
0.00100925
0.00158461
0.00221098
0.00287452
0.00355432
0.00421934
0.00482537
0.00531346
0.00564451
0.00566688
-0.00175011
-0.00182449
-0.00178638
-0.0017074
-0.00156996
-0.00136893
-0.00109941
-0.000756995
-0.000338525
0.000157734
0.000731757
0.0013811
0.00210131
0.00288116
0.00370138
0.0045291
0.00531127
0.00596844
0.00642946
0.00649863
-0.00225292
-0.00234367
-0.00231111
-0.00223866
-0.00210465
-0.00190189
-0.00162334
-0.00126259
-0.000814572
-0.000275469
0.000357272
0.00108448
0.00190656
0.00281792
0.00380515
0.0048383
0.00585839
0.00676517
0.00742751
0.00760499
-0.00283943
-0.00295073
-0.00292651
-0.0028652
-0.00273984
-0.00254049
-0.00225748
-0.0018823
-0.00140807
-0.000829078
-0.000140188
0.000662929
0.00158852
0.00263913
0.00381456
0.00509726
0.00643188
0.0077079
0.0086894
0.0091197
-0.00352049
-0.00365653
-0.00364402
-0.00359988
-0.00349005
-0.00330079
-0.00301925
-0.0026348
-0.00213933
-0.00152611
-0.000787996
8.52197e-05
0.00110121
0.00228326
0.00365123
0.0052161
0.00694783
0.00875864
0.010259
0.0112675
-0.00431525
-0.00447764
-0.00447839
-0.00445829
-0.00437264
-0.00420152
-0.00392801
-0.00353963
-0.00302829
-0.00238831
-0.00161335
-0.000691462
0.00039697
0.00167266
0.0031981
0.00503429
0.00721735
0.00976547
0.0120839
0.0145048
-0.00521938
-0.00542724
-0.00544668
-0.00546265
-0.00541127
-0.00526566
-0.00500536
-0.0046165
-0.00409233
-0.00343178
-0.00263456
-0.00169662
-0.000602033
0.000692133
0.00227087
0.0042558
0.00683041
0.0103418
0.0138488
0.019119
-0.0064182
-0.00648931
-0.00652267
-0.00657108
-0.00658356
-0.00649521
-0.00626778
-0.00588376
-0.00534417
-0.00465904
-0.00384005
-0.00288808
-0.0017837
-0.00042047
0.00102807
0.00290451
0.005358
0.00948449
0.0136946
0.0238472
-0.00743431
-0.00808381
-0.00806228
-0.00825274
-0.00828149
-0.00816007
-0.00787563
-0.00742772
-0.00682892
-0.00609827
-0.00526905
-0.0043729
-0.00346551
-0.00263022
-0.00167351
-0.000680831
0.00016891
0.00440052
0.00803076
0.0266046
-0.0107981
-0.00862983
-0.00877953
-0.00886835
-0.00913841
-0.00926272
-0.00917523
-0.00883812
-0.00827177
-0.00751285
-0.00663991
-0.00569895
-0.00482134
-0.00408373
-0.00379406
-0.00386092
-0.00554673
-0.0025939
0.000637222
0.0313659
-0.00890667
-0.012266
-0.0122099
-0.0130561
-0.0131653
-0.0129289
-0.0123658
-0.0115603
-0.0105935
-0.00949789
-0.00840404
-0.00734899
-0.00654787
-0.00618292
-0.00686338
-0.0082834
-0.0139228
-0.0112221
-0.0043758
0.0501254
-0.0321858
-0.00886195
-0.00922086
-0.00981489
-0.0103394
-0.0107242
-0.0108376
-0.0105748
-0.010017
-0.00914023
-0.00828145
-0.00720085
-0.0066116
-0.00585887
-0.00620635
-0.00551797
-0.00361753
0.0128607
0.0565162
0.158944
1.75348e-05
-4.27753e-06
3.89297e-05
0.00011828
0.000237759
0.000395971
0.000590611
0.000818638
0.00107594
0.0013572
0.00165574
0.00196385
0.00227186
0.00256928
0.00284475
0.00308657
0.00328316
0.00342404
0.00350814
0.00349663
3.85316e-05
1.53024e-05
5.83092e-05
0.000135269
0.000251371
0.000405592
0.000595917
0.000819582
0.00107273
0.00135024
0.00164548
0.00195132
0.00225783
0.00255459
0.00283016
0.00307266
0.00327025
0.00341228
0.00349857
0.00348588
-7.44951e-06
-3.41938e-05
8.42996e-06
8.51178e-05
0.000201663
0.000357214
0.000549988
0.000777487
0.0010361
0.00132092
0.00162567
0.00194237
0.00226156
0.00257233
0.00286253
0.00311931
0.00332962
0.00348139
0.00357406
0.00355907
-9.49455e-05
-0.000124981
-8.24615e-05
-5.39524e-06
0.000112775
0.00027152
0.000469431
0.000704395
0.000973166
0.00127116
0.00159229
0.00192804
0.00226936
0.00260445
0.00291998
0.00320157
0.00343411
0.00360317
0.00370728
0.0036915
-0.000229897
-0.000263895
-0.000221239
-0.000143082
-2.19122e-05
0.000142185
0.000348298
0.000594834
0.000879025
0.00119666
0.00154177
0.00190643
0.00228069
0.00265205
0.00300569
0.00332491
0.00359159
0.00378754
0.00390957
0.00389386
-0.000414587
-0.00045363
-0.000410789
-0.000331187
-0.000206085
-3.49765e-05
0.000181891
0.00044362
0.000748102
0.00109168
0.00146882
0.00187199
0.00229078
0.00271179
0.00311835
0.00349074
0.00380655
0.00404199
0.00419075
0.00417636
-0.00065195
-0.000697436
-0.000654675
-0.000573781
-0.000444435
-0.000265358
-3.59162e-05
0.000243919
0.000572942
0.000948348
0.00136532
0.00181674
0.00229239
0.00277801
0.00325499
0.00369987
0.00408441
0.00437663
0.00456472
0.00455407
-0.000945884
-0.000999603
-0.000957593
-0.000876205
-0.000743089
-0.000555967
-0.000313061
-1.31467e-05
0.000343769
0.000756061
0.00122004
0.00172944
0.00227488
0.00284179
0.00340987
0.00395159
0.00443114
0.00480482
0.005051
0.00504944
-0.00130108
-0.0013653
-0.00132523
-0.00124495
-0.00110953
-0.000915395
-0.000659321
-0.000338583
4.83213e-05
0.000501326
0.00101836
0.00159473
0.00222288
0.00288903
0.00357226
0.00424136
0.00485162
0.00534304
0.0056762
0.00569569
-0.00172299
-0.0018006
-0.00176427
-0.00168771
-0.00155267
-0.00135392
-0.00108641
-0.000745635
-0.00032829
0.000167461
0.000741709
0.00139218
0.00211466
0.00289803
0.00372313
0.00455707
0.00534627
0.00600999
0.00647584
0.00654399
-0.00221796
-0.00231259
-0.00228251
-0.0022135
-0.00208298
-0.00188359
-0.00160806
-0.00124978
-0.000803543
-0.000265412
0.00036726
0.00109547
0.0019204
0.00283627
0.00383015
0.00487239
0.00590382
0.00682288
0.00749528
0.00767731
-0.00279345
-0.00290956
-0.00288899
-0.00283278
-0.00271267
-0.00251843
-0.00224
-0.00186858
-0.00139712
-0.000819808
-0.000131471
0.000672309
0.00160096
0.00265672
0.00384049
0.00513571
0.00648771
0.00778559
0.00878754
0.00923656
-0.00345868
-0.00360095
-0.00359406
-0.00355774
-0.00345605
-0.00327464
-0.00300007
-0.00262132
-0.00213011
-0.00151963
-0.000782532
9.16905e-05
0.001109
0.00229532
0.0036725
0.00525266
0.00700904
0.00885628
0.0103969
0.0114597
-0.00422983
-0.00440102
-0.00441069
-0.00440299
-0.00433018
-0.00417129
-0.00390845
-0.00352867
-0.00302378
-0.00238835
-0.00161604
-0.000695355
0.000392815
0.0016692
0.00320225
0.00505358
0.00726649
0.00986905
0.0122633
0.0148257
-0.00509867
-0.00532005
-0.00535376
-0.00538996
-0.00535901
-0.00523237
-0.00498823
-0.00461209
-0.00409761
-0.00344402
-0.00265201
-0.00171898
-0.000631988
0.000647935
0.00223198
0.00422071
0.00681713
0.0104019
0.0140367
0.0196097
-0.00624172
-0.00633017
-0.00638733
-0.00646802
-0.00651441
-0.00645764
-0.00625672
-0.00589251
-0.00536682
-0.00469099
-0.00387904
-0.00293551
-0.00185296
-0.000588149
0.000917014
0.00276662
0.00519786
0.00936195
0.01371
0.0243898
-0.00717472
-0.00787593
-0.00788776
-0.0081377
-0.00821694
-0.00814025
-0.00788956
-0.00746561
-0.00688269
-0.00616193
-0.0053402
-0.00445173
-0.0035502
-0.00266552
-0.00185437
-0.000983752
-0.000311316
0.00376082
0.00741938
0.0268454
-0.010418
-0.00829281
-0.00849769
-0.00866649
-0.00901961
-0.00921909
-0.00919057
-0.00889466
-0.00835379
-0.00760785
-0.00674263
-0.00580906
-0.00495195
-0.00425909
-0.00410152
-0.0043879
-0.00652337
-0.00393319
-0.000605016
0.031375
-0.00828651
-0.0118305
-0.0118425
-0.012853
-0.0130842
-0.0129538
-0.0124647
-0.0117027
-0.0107565
-0.00966269
-0.00856571
-0.00750738
-0.00672224
-0.00641127
-0.00722958
-0.00893517
-0.0150889
-0.0128316
-0.00520117
0.0514958
-0.0314105
-0.00814963
-0.00863793
-0.00941432
-0.0101192
-0.0106482
-0.0108662
-0.010666
-0.0101433
-0.00927528
-0.00842408
-0.00734106
-0.00678214
-0.00608021
-0.00654504
-0.00601265
-0.00420103
0.0125331
0.0577813
0.163697
2.16683e-05
-7.32579e-07
4.209e-05
0.000121042
0.000240227
0.000398256
0.00059282
0.000820882
0.00107833
0.00135984
0.00165875
0.00196729
0.0022758
0.00257374
0.00284969
0.00309188
0.00328868
0.00342953
0.00351348
0.00350135
4.33499e-05
1.95e-05
6.212e-05
0.000138645
0.000254401
0.000408373
0.000598548
0.000822168
0.00107538
0.00135307
0.00164865
0.00195478
0.0022617
0.00255892
0.00283492
0.00307777
0.00327555
0.00341754
0.00350368
0.00349038
-1.90623e-06
-2.93009e-05
1.29224e-05
8.91398e-05
0.000205292
0.000360537
0.000553101
0.000780494
0.00103911
0.00132408
0.00162912
0.00194611
0.00226572
0.00257697
0.00286764
0.00312482
0.00333537
0.00348712
0.00357967
0.00356402
-8.8341e-05
-0.00011907
-7.69853e-05
-4.49556e-07
0.000117255
0.000275614
0.00047323
0.000708007
0.00097671
0.00127475
0.00159601
0.00193219
0.002274
0.00260965
0.00292575
0.00320784
0.00344072
0.00360985
0.00371388
0.0036974
-0.000221955
-0.000256711
-0.000214543
-0.000137
-1.63903e-05
0.00014722
0.000352939
0.000599199
0.000883254
0.00120091
0.00154621
0.00191127
0.00228609
0.00265814
0.00301253
0.00333246
0.00359968
0.00379585
0.00391791
0.00390145
-0.000404944
-0.00044483
-0.000402559
-0.000323689
-0.000199278
-2.87943e-05
0.000187548
0.000448888
0.000753147
0.00109671
0.00147403
0.00187768
0.00229718
0.00271909
0.0031267
0.00350014
0.00381685
0.0040528
0.0042018
0.00418663
-0.000640112
-0.000686555
-0.000644483
-0.000564495
-0.000436033
-0.00025778
-2.90523e-05
0.000250228
0.000578907
0.000954224
0.00137141
0.00182339
0.00229994
0.0027868
0.00326527
0.00371175
0.00409778
0.00439104
0.00457977
0.00456842
-0.00093118
-0.000986005
-0.000944866
-0.000864642
-0.0007327
-0.000546701
-0.000304795
-5.68353e-06
0.000350695
0.000762783
0.00122696
0.00173701
0.00228361
0.0028522
0.00342243
0.00396659
0.00444859
0.00482423
0.00507179
0.00506975
-0.00128258
-0.00134811
-0.00130919
-0.00123047
-0.00109666
-0.000904107
-0.000649469
-0.000329918
5.61403e-05
0.000508726
0.00102587
0.00160296
0.00223257
0.00290096
0.00358721
0.00425999
0.00487422
0.00536921
0.00570508
0.00572475
-0.00169942
-0.00177862
-0.00174386
-0.00166946
-0.00153671
-0.00134023
-0.00107483
-0.000735834
-0.000319832
0.000175124
0.000749242
0.00140039
0.00212462
0.00291087
0.0037401
0.00457941
0.00537493
0.00604497
0.00651597
0.00658599
-0.00218751
-0.00228412
-0.00225627
-0.00219035
-0.00206316
-0.00186712
-0.00159469
-0.0012391
-0.000794971
-0.000258247
0.000373832
0.00110242
0.00192924
0.00284854
0.00384775
0.00489754
0.00593865
0.00686861
0.00755067
0.00773864
-0.00275352
-0.00287219
-0.0028549
-0.00280321
-0.00268804
-0.00249876
-0.00222495
-0.00185757
-0.00138936
-0.000814398
-0.000127451
0.000675621
0.00160625
0.00266552
0.00385552
0.00516066
0.0065268
0.00784273
0.00886266
0.00932697
-0.00340555
-0.00355125
-0.00354925
-0.00351971
-0.0034254
-0.00325139
-0.00298371
-0.00261095
-0.00212463
-0.00151786
-0.000783168
9.01587e-05
0.00110716
0.0022957
0.00367859
0.00527056
0.00704621
0.00892178
0.0104946
0.0115933
-0.00415792
-0.00433401
-0.00435109
-0.00435368
-0.00429202
-0.00414418
-0.00389152
-0.00352051
-0.00302281
-0.00239291
-0.00162477
-0.000707211
0.000378703
0.00165428
0.00319014
0.00505154
0.00728715
0.00993052
0.012381
0.0150229
-0.00500069
-0.00522906
-0.00527384
-0.00532575
-0.00531156
-0.00520133
-0.00497204
-0.00460849
-0.00410414
-0.00345857
-0.00267328
-0.00174686
-0.000667805
0.000604163
0.00218318
0.00417303
0.0067872
0.010425
0.0141548
0.0198831
-0.00610547
-0.00620265
-0.00627625
-0.00638033
-0.00645238
-0.00642074
-0.00624212
-0.00589633
-0.00538471
-0.00471959
-0.00391673
-0.00298322
-0.00191609
-0.000674189
0.000820534
0.00265136
0.00507834
0.00928031
0.0137498
0.0246902
-0.00699261
-0.00771476
-0.0077469
-0.00803407
-0.00814851
-0.00810553
-0.00788424
-0.00748375
-0.00691832
-0.00621034
-0.00539918
-0.00452163
-0.00363369
-0.0027692
-0.00201067
-0.00120624
-0.000620884
0.00339929
0.00719189
0.0270134
-0.0101673
-0.00805715
-0.00829138
-0.00850655
-0.00891227
-0.00916214
-0.00917912
-0.00891834
-0.00840263
-0.00767336
-0.00682071
-0.00589978
-0.00506471
-0.00441334
-0.00433363
-0.00474547
-0.00709802
-0.00465279
-0.00111857
0.0313774
-0.00798244
-0.0115605
-0.0115853
-0.0126675
-0.0129659
-0.0129058
-0.0124754
-0.0117554
-0.0108358
-0.00975705
-0.00867023
-0.00762179
-0.00685828
-0.00659334
-0.00750332
-0.00938617
-0.0158067
-0.0137446
-0.00564177
0.0520524
-0.0310068
-0.00774575
-0.00828628
-0.00914557
-0.00994794
-0.0105667
-0.0108549
-0.0107029
-0.0102122
-0.0093614
-0.00852327
-0.00745025
-0.00691806
-0.00626157
-0.00680793
-0.00638401
-0.00463788
0.0122205
0.0582346
0.165422
2.54275e-05
2.74112e-06
4.52979e-05
0.000123957
0.000242898
0.000400752
0.000595221
0.000823273
0.0010808
0.00136249
0.00166165
0.00197049
0.00227935
0.00257767
0.00285399
0.00309648
0.00329346
0.00343436
0.00351826
0.00350589
4.74822e-05
2.33505e-05
6.57023e-05
0.000141919
0.000257403
0.000411165
0.000601203
0.00082477
0.00107802
0.00135585
0.00165167
0.00195806
0.00226531
0.0025629
0.00283926
0.00308241
0.00328037
0.00342241
0.00350852
0.00349496
2.80339e-06
-2.48863e-05
1.7053e-05
9.29318e-05
0.000208774
0.000363764
0.000556144
0.000783437
0.00104205
0.00132712
0.00163237
0.00194963
0.00226959
0.00258124
0.00287232
0.00312986
0.00334065
0.00349249
0.00358502
0.0035691
-8.27668e-05
-0.000113813
-7.20431e-05
4.10371e-06
0.000121437
0.000279473
0.000476834
0.000711444
0.000980083
0.00127817
0.00159957
0.00193609
0.00227831
0.00261443
0.00293104
0.00321359
0.00344683
0.00361612
0.0037202
0.00370344
-0.000215246
-0.000250349
-0.000208547
-0.000131467
-1.13149e-05
0.000151878
0.000357251
0.000603261
0.000887185
0.00120484
0.00155031
0.00191571
0.00229102
0.00266367
0.00301873
0.00333932
0.00360709
0.0038036
0.00392581
0.00390909
-0.000396765
-0.000437042
-0.000395212
-0.000316913
-0.000193084
-2.31497e-05
0.000192717
0.000453693
0.000757735
0.00110125
0.00147873
0.00188277
0.00230288
0.00272559
0.00313413
0.00350854
0.00382611
0.00406269
0.00421206
0.00419668
-0.000630029
-0.000676922
-0.000635403
-0.000556145
-0.000428448
-0.000250937
-2.28718e-05
0.000255879
0.000584209
0.000959403
0.00137673
0.00182916
0.00230648
0.0027944
0.00327419
0.00372212
0.00410954
0.00440391
0.0045934
0.00458196
-0.00091861
-0.000973969
-0.000933551
-0.000854292
-0.000723387
-0.000538418
-0.000297454
8.76467e-07
0.000356703
0.000768531
0.0012328
0.00174335
0.00229091
0.00286093
0.00343299
0.0039793
0.00446351
0.00484108
0.00509006
0.00508824
-0.00126674
-0.00133293
-0.00129497
-0.00121757
-0.00108521
-0.000894112
-0.000640835
-0.000322446
6.27411e-05
0.000514832
0.00103193
0.00160953
0.0022403
0.00291054
0.00359932
0.00427522
0.00489292
0.00539117
0.00572963
0.00575017
-0.00167924
-0.00175926
-0.00172585
-0.0016533
-0.0015226
-0.00132822
-0.00106481
-0.000727543
-0.000312899
0.000181173
0.000754979
0.00140651
0.00213205
0.00292058
0.00375317
0.00459692
0.00539773
0.00607321
0.0065488
0.00662107
-0.00216151
-0.0022592
-0.00223327
-0.00216999
-0.00204576
-0.00185276
-0.00158324
-0.00123022
-0.000788179
-0.000252952
0.000378319
0.00110694
0.00193509
0.00285696
0.00386036
0.00491618
0.00596509
0.00690396
0.00759409
0.00778725
-0.00271969
-0.00283981
-0.00282529
-0.00277742
-0.00266655
-0.0024817
-0.00221214
-0.00184853
-0.00138346
-0.00081091
-0.000125601
0.000676477
0.00160834
0.00267013
0.00386489
0.00517763
0.0065548
0.00788483
0.00891894
0.00939449
-0.0033611
-0.0035088
-0.00351083
-0.00348685
-0.00339882
-0.00323127
-0.00296973
-0.00260246
-0.00212075
-0.0015176
-0.000785507
8.67015e-05
0.00110268
0.00229258
0.00367984
0.00528033
0.0070706
0.00896757
0.0105647
0.0116875
-0.00409901
-0.00427794
-0.00430088
-0.0043116
-0.00425906
-0.00412057
-0.00387676
-0.0035136
-0.00302253
-0.00239811
-0.00163438
-0.000720235
0.000363207
0.00163787
0.00317524
0.00504424
0.00729716
0.00997083
0.0124622
0.0151542
-0.00492268
-0.00515492
-0.00520802
-0.00527174
-0.00527069
-0.0051738
-0.00495704
-0.00460451
-0.00410948
-0.0034717
-0.0026932
-0.00177324
-0.000700989
0.000565471
0.00213892
0.00412975
0.00675873
0.0104365
0.0142346
0.0200581
-0.00600092
-0.00610305
-0.00618824
-0.00630897
-0.00640007
-0.00638775
-0.00622702
-0.00589663
-0.00539764
-0.00474288
-0.00394927
-0.00302543
-0.00197017
-0.000741067
0.000741231
0.00256005
0.00498923
0.00922454
0.0137865
0.0248858
-0.00686022
-0.00759238
-0.00763779
-0.00794901
-0.00808852
-0.00807084
-0.00787243
-0.00749122
-0.00694145
-0.00624618
-0.00544633
-0.00458062
-0.00370745
-0.00286525
-0.00213939
-0.00137407
-0.000835882
0.00317401
0.00707204
0.0271433
-0.00998888
-0.00788543
-0.00813962
-0.00838404
-0.00882494
-0.00911119
-0.00916091
-0.00892744
-0.00843287
-0.00771947
-0.00688021
-0.00597327
-0.00515892
-0.0045409
-0.0045124
-0.00500117
-0.0074734
-0.00508662
-0.00142755
0.0313993
-0.00779499
-0.0113806
-0.0114073
-0.0125265
-0.0128665
-0.0128521
-0.0124618
-0.0117742
-0.0108789
-0.0098169
-0.00874351
-0.00770869
-0.0069666
-0.00673844
-0.00771209
-0.00970387
-0.0162843
-0.0143093
-0.00601863
0.0522953
-0.0307457
-0.00747796
-0.00804526
-0.00894988
-0.00981006
-0.0104872
-0.0108268
-0.0107143
-0.0102521
-0.00941979
-0.00859661
-0.00753707
-0.00702835
-0.00640649
-0.00701163
-0.00665345
-0.00498013
0.0119335
0.0582023
0.166168
2.86706e-05
5.85556e-06
4.82402e-05
0.000126697
0.000245449
0.000403151
0.000597521
0.000825537
0.0010831
0.00136489
0.00166422
0.00197328
0.00228241
0.00258101
0.00285761
0.00310034
0.00329749
0.00343846
0.00352238
0.00350993
5.09453e-05
2.66808e-05
6.88542e-05
0.000144857
0.000260138
0.000413731
0.000603651
0.000827161
0.00108043
0.00135835
0.00165434
0.00196093
0.00226844
0.00256632
0.00284297
0.00308637
0.00328452
0.00342665
0.00351278
0.00349914
6.70781e-06
-2.11213e-05
2.06238e-05
9.62645e-05
0.000211873
0.000366659
0.000558884
0.000786087
0.00104469
0.00132982
0.00163522
0.0019527
0.00227294
0.00258492
0.00287634
0.00313418
0.0033452
0.00349718
0.00358977
0.00357378
-7.81809e-05
-0.000109379
-6.78315e-05
8.03552e-06
0.000125085
0.00028286
0.000480011
0.000714476
0.000983054
0.00128117
0.0016027
0.00193946
0.00228201
0.00261853
0.00293556
0.00321852
0.00345209
0.00362161
0.0037258
0.00370899
-0.000209737
-0.000245011
-0.000203475
-0.000126737
-6.9444e-06
0.000155909
0.00036099
0.000606783
0.000890588
0.00120824
0.00155384
0.00191951
0.00229521
0.00266836
0.00302398
0.00334514
0.00361341
0.00381029
0.00393274
0.003916
-0.000390044
-0.00043052
-0.000389022
-0.000311157
-0.000187796
-1.83186e-05
0.000197142
0.000457798
0.000761638
0.0011051
0.00148269
0.00188704
0.00230764
0.002731
0.00314031
0.00351555
0.00383391
0.0040711
0.00422089
0.00420556
-0.000621731
-0.000668864
-0.000627773
-0.000549084
-0.000422015
-0.000245132
-1.76415e-05
0.000260637
0.000588641
0.000963697
0.00138111
0.00183388
0.00231181
0.0028006
0.00328146
0.0037306
0.00411923
0.00441462
0.00460485
0.00459361
-0.000908258
-0.000963917
-0.000924068