/*--------------------------------*- C++ -*----------------------------------*\
  =========                 |
  \\      /  F ield         | OpenFOAM: The Open Source CFD Toolbox
   \\    /   O peration     | Website:  https://openfoam.org
    \\  /    A nd           | Version:  10
     \\/     M anipulation  |
\*---------------------------------------------------------------------------*/
FoamFile
{
    format      ascii;
    class       surfaceScalarField;
    location    "2.725";
    object      phi;
}
// * * * * * * * * * * * * * * * * * * * * * * * * * * * * * * * * * * * * * //

dimensions      [0 3 -1 0 0 0 0];

internalField   nonuniform List<scalar> 
760
(
-1.2378e-05
1.2378e-05
-3.32723e-05
2.08943e-05
-5.49793e-05
2.1707e-05
-7.56754e-05
2.06961e-05
-9.47381e-05
1.90628e-05
-0.000111713
1.69749e-05
-0.000126175
1.44621e-05
-0.000137719
1.15435e-05
-0.000145963
8.2442e-06
-0.000150562
4.59904e-06
-0.000151219
6.57414e-07
-0.000147691
-3.52866e-06
-0.000139841
-7.8499e-06
-0.000127654
-1.21866e-05
-0.00011127
-1.63845e-05
-9.10135e-05
-2.02561e-05
-6.74471e-05
-2.35664e-05
-4.15524e-05
-2.58947e-05
-1.58851e-05
-2.56673e-05
-1.58851e-05
-2.15436e-05
3.39216e-05
-5.42672e-05
5.36179e-05
-8.78535e-05
5.52934e-05
-0.000119748
5.25901e-05
-0.000148967
4.82818e-05
-0.000174789
4.27972e-05
-0.000196566
3.62395e-05
-0.000213707
2.86838e-05
-0.000225676
2.0214e-05
-0.000232004
1.09263e-05
-0.000232334
9.87373e-07
-0.000226343
-9.51897e-06
-0.000213897
-2.02964e-05
-0.000195029
-3.10546e-05
-0.000169988
-4.14252e-05
-0.000139286
-5.09578e-05
-0.000103766
-5.90864e-05
-6.48643e-05
-6.47968e-05
-2.6074e-05
-6.44576e-05
-4.19591e-05
-2.39874e-05
5.7909e-05
-6.01148e-05
8.97452e-05
-9.70834e-05
9.2262e-05
-0.00013214
8.7647e-05
-0.000164237
8.03781e-05
-0.000192599
7.11596e-05
-0.000216535
6.01751e-05
-0.000235413
4.75617e-05
-0.000248665
3.34661e-05
-0.000255799
1.8061e-05
-0.000256392
1.58038e-06
-0.000250064
-1.5847e-05
-0.000236658
-3.37027e-05
-0.00021616
-5.15529e-05
-0.00018878
-6.88052e-05
-0.00015502
-8.47172e-05
-0.000115762
-9.83444e-05
-7.25658e-05
-0.000107993
-2.92943e-05
-0.000107729
-7.12534e-05
-2.54767e-05
8.33857e-05
-6.39388e-05
0.000128207
-0.000103275
0.000131598
-0.00014059
0.000124962
-0.000174801
0.000114589
-0.000205114
0.000101473
-0.00023082
8.58815e-05
-0.000251269
6.80106e-05
-0.000265866
4.80627e-05
-0.000274072
2.62666e-05
-0.000275429
2.93771e-06
-0.000269459
-2.18172e-05
-0.000255878
-4.72831e-05
-0.000234564
-7.28672e-05
-0.00020562
-9.77496e-05
-0.00016946
-0.000120877
-0.000126949
-0.000140855
-7.97718e-05
-0.000155171
-3.2232e-05
-0.000155269
-0.000103485
-2.73182e-05
0.000110704
-6.86681e-05
0.000169557
-0.000110959
0.000173889
-0.000151106
0.000165109
-0.000187986
0.000151468
-0.000220786
0.000134273
-0.000248785
0.00011388
-0.000271317
9.05425e-05
-0.00028776
6.45067e-05
-0.00029753
3.60362e-05
-0.000300072
5.47953e-06
-0.000294824
-2.70653e-05
-0.000281318
-6.07891e-05
-0.000259232
-9.49529e-05
-0.000228469
-0.000128513
-0.000189279
-0.000160066
-0.000142459
-0.000187675
-8.98449e-05
-0.000207786
-3.63861e-05
-0.000208728
-0.000139872
-2.97343e-05
0.000140438
-7.48354e-05
0.000214658
-0.000120954
0.000220007
-0.000164757
0.000208913
-0.000205069
0.00019178
-0.000241063
0.000170267
-0.000272012
0.00014483
-0.000297248
0.000115778
-0.00031613
8.33883e-05
-0.000328023
4.79298e-05
-0.000332285
9.74142e-06
-0.00032821
-3.11402e-05
-0.000315094
-7.39057e-05
-0.000292326
-0.000117721
-0.00025948
-0.000161359
-0.000216505
-0.000203041
-0.000164018
-0.000240162
-0.000103997
-0.000267807
-4.22979e-05
-0.000270426
-0.000182169
-3.27947e-05
0.000173233
-8.26179e-05
0.000264481
-0.000133523
0.000270913
-0.000181867
0.000257257
-0.000226415
0.000236328
-0.000266335
0.000210187
-0.000300916
0.000179411
-0.000329508
0.000144369
-0.000351473
0.000105354
-0.000366147
6.2604e-05
-0.000372795
1.6389e-05
-0.000370556
-3.33787e-05
-0.000358411
-8.60512e-05
-0.000335343
-0.000140788
-0.000300412
-0.00019629
-0.000253033
-0.00025042
-0.000193419
-0.000299776
-0.000123586
-0.000337641
-5.06203e-05
-0.000343392
-0.00023279
-3.65724e-05
0.000209805
-9.21953e-05
0.000320104
-0.000148926
0.000327643
-0.000202737
0.000311068
-0.000252336
0.000285928
-0.000296909
0.00025476
-0.000335793
0.000218295
-0.000368397
0.000176973
-0.000394132
0.000131089
-0.00041234
8.08123e-05
-0.00042222
2.62684e-05
-0.000422764
-3.28349e-05
-0.000412563
-9.62521e-05
-0.000390059
-0.000163292
-0.000353542
-0.000232808
-0.000301501
-0.00030246
-0.000233323
-0.000367954
-0.000150742
-0.000420222
-6.24623e-05
-0.000431672
-0.000295252
-4.1177e-05
0.000250982
-0.000103823
0.00038275
-0.000167512
0.000391333
-0.000227756
0.000371312
-0.000283217
0.000341388
-0.000333132
0.000304675
-0.000376941
0.000262104
-0.000414179
0.00021421
-0.000444374
0.000161284
-0.000466948
0.000103386
-0.000481095
4.04152e-05
-0.000485719
-2.82105e-05
-0.000478974
-0.000102997
-0.000458629
-0.000183637
-0.000421878
-0.000269559
-0.0003657
-0.000358638
-0.000287835
-0.000445819
-0.00018899
-0.000519066
-7.98537e-05
-0.000540808
-0.000375106
-4.67826e-05
0.000297765
-0.000117881
0.000453849
-0.000189785
0.000463237
-0.00025746
0.000438987
-0.000319552
0.00040348
-0.000375412
0.000360535
-0.000424659
0.000311352
-0.000467047
0.000256598
-0.00050233
0.000196568
-0.000530124
0.00013118
-0.000549734
6.00257e-05
-0.000560137
-1.78082e-05
-0.000559045
-0.000104089
-0.000543514
-0.000199168
-0.000509287
-0.000303786
-0.00045103
-0.000416895
-0.000363403
-0.000533446
-0.000244402
-0.000638068
-0.000106764
-0.000678446
-0.00048187
-5.36749e-05
0.00035144
-0.000134951
0.000535125
-0.000216477
0.000544763
-0.000292596
0.000515105
-0.000362
0.000472884
-0.000424244
0.000422779
-0.000479241
0.000366349
-0.000527089
0.000304445
-0.000567912
0.000237391
-0.000601688
0.000164956
-0.000627995
8.63327e-05
-0.000646286
4.8324e-07
-0.000653819
-9.65563e-05
-0.000647213
-0.000205774
-0.000620484
-0.000330514
-0.000565042
-0.000472337
-0.00047029
-0.000628198
-0.000327933
-0.000780425
-0.000151557
-0.000854822
-0.000633427
-6.23413e-05
0.000413781
-0.000155945
0.000628728
-0.000248676
0.000637494
-0.000334219
0.000600648
-0.000411446
0.000550111
-0.000480252
0.000491586
-0.000540987
0.000427083
-0.000594248
0.000357707
-0.000640721
0.000283864
-0.000680996
0.000205231
-0.000715345
0.000120682
-0.000743194
2.83324e-05
-0.000763342
-7.64087e-05
-0.000771622
-0.000197493
-0.000760665
-0.000341472
-0.00071794
-0.000515062
-0.000624757
-0.000721381
-0.000460342
-0.000944841
-0.000233352
-0.00108181
-0.000866779
-7.36733e-05
0.000487454
-0.000182321
0.000737376
-0.000288
0.000743173
-0.000383834
0.000696482
-0.000469109
0.000635386
-0.000544253
0.000566729
-0.000610227
0.000493058
-0.000668311
0.000415791
-0.000719943
0.000335496
-0.000766563
0.00025185
-0.000809419
0.000163538
-0.00084912
6.80334e-05
-0.000885914
-3.96143e-05
-0.000916746
-0.000166662
-0.00093422
-0.000323998
-0.000922385
-0.000526896
-0.000852039
-0.000791727
-0.00068108
-0.0011158
-0.000397246
-0.00136564
-0.00126403
-8.93927e-05
0.000576847
-0.000216657
0.000864641
-0.000336963
0.000863479
-0.000443592
0.000803111
-0.00053667
0.000728464
-0.000617344
0.000647404
-0.000687394
0.000563107
-0.000748952
0.000477349
-0.000804387
0.000390931
-0.000856229
0.000303692
-0.000907165
0.000214473
-0.000959897
0.000120765
-0.00101581
1.63007e-05
-0.00107782
-0.000104653
-0.00114113
-0.000260684
-0.00119017
-0.000477862
-0.00118753
-0.000794365
-0.00105405
-0.00124928
-0.000721358
-0.00169834
-0.00198538
-0.000110044
0.000686891
-0.000260868
0.00101547
-0.000398423
0.00100103
-0.000516414
0.000921103
-0.000616488
0.000828537
-0.00070103
0.000731947
-0.000773065
0.000635141
-0.000835751
0.000540035
-0.000892426
0.000447607
-0.000946729
0.000357996
-0.00100268
0.000270429
-0.00106524
0.000183324
-0.00114275
9.38031e-05
-0.00124249
-4.90728e-06
-0.00136863
-0.00013455
-0.00151852
-0.000327969
-0.00166021
-0.000652673
-0.00164077
-0.00126872
-0.00126578
-0.00207333
-0.00325116
-0.000164535
0.000851426
-0.000334816
0.00118575
-0.000481767
0.00114798
-0.000605193
0.00104453
-0.000709176
0.00093252
-0.000795499
0.00081827
-0.000867026
0.000706668
-0.000927492
0.000600501
-0.000981401
0.000501516
-0.00103381
0.000410406
-0.00109118
0.000327797
-0.00116096
0.000253102
-0.00125377
0.000186612
-0.00138334
0.000124668
-0.00157367
5.57813e-05
-0.00183919
-6.24524e-05
-0.00216789
-0.000323976
-0.00229665
-0.00113996
-0.00180428
-0.0025657
-0.00505544
-0.00014445
0.000995876
-0.000386718
0.00142801
-0.000576698
0.00133796
-0.000722363
0.00119019
-0.000830767
0.00104092
-0.000909347
0.00089685
-0.000967069
0.00076439
-0.00101168
0.000645113
-0.0010493
0.000539138
-0.0010845
0.000445603
-0.00112338
0.000366682
-0.00117294
0.000302658
-0.00124833
0.000262001
-0.00137284
0.000249183
-0.00159097
0.000273907
-0.0019215
0.000268075
-0.00236789
0.00012242
-0.00251336
-0.000994492
-0.00177156
-0.0033075
-0.006827
-0.000427172
0.00142305
-0.000595407
0.00159625
-0.000729908
0.00147247
-0.000838107
0.00129839
-0.000898151
0.00110097
-0.000924719
0.000923418
-0.00093032
0.000769991
-0.000923915
0.000638708
-0.000913065
0.000528288
-0.000902012
0.000434549
-0.000899425
0.000364096
-0.000906748
0.000309981
-0.000937599
0.000292852
-0.000990379
0.000301963
-0.00109091
0.000374437
-0.00121416
0.000391322
-0.0013309
0.000239164
-0.00135918
-0.000966217
-0.000713005
-0.00395367
-0.00754001
-0.00125322
0.00267626
-0.00116405
0.00150709
-0.000925688
0.0012341
-0.000611075
0.00098378
-0.00029319
0.000783082
3.72052e-06
0.000626508
0.000268049
0.000505662
0.000498479
0.000408278
0.00069429
0.000332478
0.000860848
0.000267991
0.00100205
0.000222895
0.00112525
0.000186782
0.00125375
0.000164355
0.0013892
0.000166507
0.00161959
0.000144051
0.00187394
0.000136968
0.00222134
-0.000108236
0.00223976
-0.000984636
0.00152189
-0.0032358
-0.00601812
0.00267626
0.00418335
0.00541745
0.00640123
0.00718431
0.00781082
0.00831648
0.00872476
0.00905724
0.00932523
0.00954812
0.00973491
0.00989926
0.0100658
0.0102098
0.0103468
0.0102386
0.00925391
0.00601812
)
;

boundaryField
{
    movingWall
    {
        type            calculated;
        value           uniform 0;
    }
    fixedWalls
    {
        type            calculated;
        value           uniform 0;
    }
    frontAndBack
    {
        type            empty;
        value           nonuniform List<scalar> 0();
    }
}


// ************************************************************************* //
