/*--------------------------------*- C++ -*----------------------------------*\
  =========                 |
  \\      /  F ield         | OpenFOAM: The Open Source CFD Toolbox
   \\    /   O peration     | Website:  https://openfoam.org
    \\  /    A nd           | Version:  10
     \\/     M anipulation  |
\*---------------------------------------------------------------------------*/
FoamFile
{
    format      ascii;
    class       volScalarField;
    location    "5.55";
    object      p;
}
// * * * * * * * * * * * * * * * * * * * * * * * * * * * * * * * * * * * * * //

dimensions      [0 2 -2 0 0 0 0];

internalField   nonuniform List<scalar> 
496
(
21.7293
22.1083
18.4201
11.8482
22.4214
23.0321
18.544
12.0835
27.4042
24.9221
16.0683
5.49145
35.7087
32.1952
28.4356
11.8652
3.29809
-5.89431
3.20477
-5.8073
-10.04
-15.0616
-40.4986
-65.5828
-13.2913
-18.2868
-20.894
-21.8149
-13.4419
-19.5878
-23.4273
-24.8188
-8.67792
-9.73528
-14.9647
-20.506
-35.2691
-21.4221
-14.798
-18.6251
-21.9762
-22.2165
-22.4683
-22.5552
-22.0326
-20.7333
-18.536
-16.4058
-15.0916
-14.3707
-13.7579
-12.6817
-11.5628
-10.3508
-9.98912
-10.1738
-10.6941
-10.7337
-9.97572
-9.03424
-8.05505
-7.70122
-7.31681
-7.11572
-6.78928
-6.34202
-5.98085
-5.35754
-5.13011
-4.65128
-4.32396
-3.7625
-2.88115
-2.03827
-0.897719
-0.137752
0.43369
0.714945
0.624814
0.320241
-24.9271
-24.5792
-23.9557
-23.4975
-22.3564
-20.5108
-18.3841
-16.5417
-15.1983
-14.1705
-13.2997
-11.9605
-10.7967
-9.96353
-9.85987
-10.25
-10.6148
-10.65
-9.93236
-9.1697
-8.19889
-7.78536
-7.33881
-7.03398
-6.66235
-6.38265
-6.11712
-5.46567
-5.12652
-4.65127
-4.36631
-3.96513
-3.21341
-2.1059
-0.769324
0.105558
0.803468
0.928905
0.716394
0.440499
-24.784
-26.5875
-26.5409
-25.427
-23.358
-20.8928
-18.9024
-17.3061
-15.7326
-14.4343
-12.7817
-11.4643
-10.3559
-9.91655
-10.3486
-10.8342
-11.0702
-10.6816
-10.2649
-9.19863
-8.27146
-7.4391
-6.97251
-6.84688
-6.81913
-7.01036
-7.0186
-6.77893
-6.01503
-5.16494
-4.4814
-3.65415
-3.02515
-2.06333
-0.692446
0.146906
0.771792
0.350056
0.15992
-0.185156
-22.8239
-24.5434
-24.8163
-24.9166
-24.0826
-21.236
-19.6569
-17.9847
-15.8518
-13.5538
-10.4786
-9.02729
-8.09226
-9.10081
-10.0665
-10.9857
-11.5269
-11.22
-11.261
-9.8014
-8.88199
-7.36826
-6.50021
-6.38964
-6.1141
-7.14134
-7.32465
-7.67642
-6.99377
-6.17667
-5.39754
-4.10728
-2.94234
0.0909248
1.70817
3.23087
3.37339
1.77459
1.11817
0.235522
40.709
42.009
56.2981
68.1389
41.2488
43.5098
57.1239
69.6585
-33.7076
-38.4649
-32.339
-30.9618
-29.9065
-44.9092
-33.4516
-20.9907
-26.8523
-26.3873
-28.5113
-25.058
-23.9254
-22.765
-20.218
-18.1638
-15.8934
-14.3717
-12.1836
-10.7626
-10.0026
-9.96381
-10.4199
-10.6281
-10.6006
-10.5259
-10.1973
-9.60162
-8.78267
-7.72248
-7.20727
-6.52541
-6.24284
-6.8562
-6.94163
-7.24755
-7.12364
-6.13678
-4.90135
-3.54907
-2.25077
-1.23368
-0.606909
0.253138
-0.400611
-0.147292
0.231736
-0.023886
-32.4202
-28.254
-24.7676
-24.9393
-26.3149
-20.8712
-18.7052
-18.1914
-16.777
-15.5545
-13.7485
-12.2894
-11.4258
-11.0999
-11.3299
-11.1611
-10.4638
-9.94389
-9.7403
-9.53668
-9.10381
-8.91847
-8.36192
-7.50474
-6.50124
-5.83445
-4.88464
-4.34996
-4.19813
-3.6736
-3.39449
-2.71671
-2.41786
-2.50676
-2.13423
-2.53523
-2.2537
-1.48255
-0.911224
-0.128346
37.4302
34.8051
31.3901
16.8072
30.1945
27.8307
20.1236
9.96523
25.1669
25.2192
20.8676
14.4931
24.2096
23.9515
20.385
14.2604
-32.2949
-56.3886
-4.95024
-11.1245
5.6321
-3.69548
5.93845
-3.49398
-27.545
-17.1583
-24.7918
-26.2299
-7.20116
-10.3907
-17.6864
-22.1835
-11.9661
-18.3915
-22.6245
-24.7667
-11.3205
-16.8454
-20.1084
-21.5905
-22.3472
-23.9526
-23.3111
-20.7224
-20.7685
-20.7912
-19.1011
-16.9245
-15.4266
-14.7931
-14.5561
-13.564
-12.8388
-12.103
-11.9966
-11.7389
-11.1361
-10.3651
-9.42066
-9.60754
-9.17989
-9.23873
-8.1808
-7.13936
-5.35223
-3.44225
-2.69315
-1.20003
-1.75349
-1.50306
-1.93328
-2.45149
-2.29818
-3.32006
-2.99183
-3.12024
-3.00178
-2.08563
-1.47605
0.0872145
-24.2944
-23.9811
-23.0639
-22.3366
-21.4258
-20.1456
-19.0676
-17.7347
-16.1929
-14.9682
-14.5818
-14.0935
-13.4819
-12.7536
-11.9653
-11.2674
-10.6079
-10.3922
-10.0487
-9.72802
-8.89235
-8.14702
-7.3995
-6.48241
-5.81382
-4.79048
-4.21705
-3.43015
-2.75259
-2.32467
-2.02549
-2.44272
-2.48461
-2.72807
-2.75114
-2.53773
-2.24937
-1.62044
-1.16999
-0.569625
-25.2813
-24.5929
-23.2237
-21.7149
-20.4756
-19.2839
-18.4033
-17.5265
-16.2744
-14.8432
-14.0659
-13.9952
-13.7644
-12.9734
-11.7289
-10.8466
-10.487
-10.4788
-10.2697
-9.53013
-8.70045
-7.85611
-7.35783
-6.67081
-5.88257
-4.88663
-3.97101
-3.29669
-2.52705
-2.32196
-2.01423
-1.84839
-1.75517
-1.64501
-1.70456
-1.41626
-1.41958
-1.45272
-1.30894
-0.73013
-22.1136
-22.2287
-21.9143
-20.9992
-20.0121
-19.1651
-18.3939
-17.5394
-16.4578
-15.1249
-14.0955
-13.9971
-13.8913
-13.0958
-11.6378
-10.7747
-10.6234
-10.7054
-10.403
-9.46708
-8.62793
-7.73649
-7.2527
-6.52932
-5.79161
-5.06032
-4.17779
-3.59365
-2.87079
-2.50957
-2.01697
-1.70573
-1.59941
-1.52061
-1.67364
-1.5314
-1.55894
-1.43693
-1.0203
-0.508964
)
;

boundaryField
{
    inlet
    {
        type            zeroGradient;
    }
    outlet
    {
        type            fixedValue;
        value           uniform 0;
    }
    obstacle
    {
        type            zeroGradient;
    }
    upperWall
    {
        type            zeroGradient;
    }
    lowerWall
    {
        type            zeroGradient;
    }
    frontAndBack
    {
        type            empty;
    }
}


// ************************************************************************* //
