/*--------------------------------*- C++ -*----------------------------------*\
  =========                 |
  \\      /  F ield         | OpenFOAM: The Open Source CFD Toolbox
   \\    /   O peration     | Website:  https://openfoam.org
    \\  /    A nd           | Version:  10
     \\/     M anipulation  |
\*---------------------------------------------------------------------------*/
FoamFile
{
    format      ascii;
    class       volScalarField;
    location    "1.6";
    object      p;
}
// * * * * * * * * * * * * * * * * * * * * * * * * * * * * * * * * * * * * * //

dimensions      [0 2 -2 0 0 0 0];

internalField   nonuniform List<scalar> 
496
(
25.7056
25.8426
22.1995
15.837
26.5353
26.9279
22.4514
16.0386
31.6319
29.2133
20.5708
10.2203
39.904
36.5386
32.4496
15.9505
7.37513
-1.95064
7.05611
-1.91269
-5.49901
-10.8714
-37.1512
-60.859
-9.45501
-14.9262
-18.0287
-19.4161
-9.71237
-16.1786
-20.2317
-22.7074
-5.09022
-6.31947
-12.0111
-19.631
-31.0981
-16.279
-12.8657
-23.0659
-19.9956
-20.1523
-19.6568
-18.5675
-17.5156
-15.8646
-13.5192
-11.3607
-10.2921
-9.91995
-9.21209
-8.4193
-7.62296
-6.98495
-6.47264
-6.50248
-7.07853
-7.55785
-7.61543
-7.1519
-6.90484
-6.96223
-7.16808
-7.10368
-6.63386
-6.11195
-5.4689
-4.9158
-4.19991
-3.48698
-2.79212
-2.15868
-1.73646
-1.42485
-1.31283
-1.22422
-1.12694
-1.05086
-0.752553
-0.301379
-23.6951
-22.7794
-21.1188
-19.548
-17.9488
-15.7392
-13.4065
-11.5081
-10.3381
-9.55736
-8.7194
-7.99483
-7.28346
-6.79187
-6.37273
-6.4083
-6.93752
-7.4102
-7.56553
-7.23635
-7.07522
-7.12056
-7.30625
-7.23382
-6.81467
-6.32425
-5.60443
-4.9962
-4.19976
-3.42363
-2.6665
-1.98851
-1.62617
-1.22339
-1.28941
-1.19734
-1.11712
-0.977288
-0.730449
-0.380579
-23.8216
-24.1189
-22.1551
-20.734
-18.6381
-15.7189
-13.4019
-11.6855
-10.4119
-9.17361
-8.39946
-7.76258
-7.22464
-6.70497
-6.30659
-6.57711
-6.89718
-7.36164
-7.46511
-7.49213
-7.51961
-7.62824
-7.92439
-7.67221
-7.22682
-6.34935
-5.48745
-4.57014
-3.63761
-2.92278
-2.41314
-2.01436
-1.82797
-1.98332
-1.99705
-1.96972
-1.89213
-1.46556
-0.962099
-0.299123
-25.9686
-24.1654
-20.531
-21.6725
-19.967
-16.1986
-13.8708
-11.261
-9.35198
-7.5065
-6.46837
-5.63326
-5.68497
-5.83743
-6.12912
-6.63361
-6.79643
-7.21648
-7.21487
-7.75714
-8.20826
-8.54785
-8.78224
-8.51385
-8.31729
-7.30203
-6.39281
-4.87217
-3.27686
-1.99105
-0.744199
-0.681365
-0.72849
-1.43574
-1.76002
-2.26448
-2.33076
-1.9172
-1.63992
-0.527208
44.544
45.92
59.9778
72.1661
45.1606
47.3659
60.762
73.5082
-26.6992
-33.1092
-32.471
-30.7006
-24.7766
-38.4103
-29.0866
-22.3756
-26.1666
-22.9419
-24.5099
-24.6058
-20.0309
-17.5033
-16.7575
-11.7471
-11.0386
-9.14405
-6.73115
-6.58148
-6.40898
-6.17613
-6.372
-6.82454
-7.06816
-7.19336
-7.32863
-7.46834
-7.49969
-7.67149
-7.69944
-7.61728
-7.65426
-6.91847
-6.05604
-4.97117
-4.02491
-2.9769
-2.19357
-2.00258
-1.84219
-1.70949
-1.88227
-1.99105
-1.79102
-1.78447
-1.23676
-0.240808
-28.217
-25.6864
-21.5954
-21.3541
-22.2302
-17.4558
-15.6743
-13.5613
-11.5171
-10.0431
-8.21046
-7.23255
-6.78312
-6.57784
-6.91058
-7.6221
-8.18594
-8.24124
-8.04616
-7.66298
-7.01206
-6.19986
-5.56622
-5.16294
-4.82873
-5.04371
-5.01715
-4.8535
-4.63572
-4.32869
-3.84381
-3.43481
-2.9036
-2.14706
-1.55544
-1.02869
-0.593808
-0.238373
-0.0807873
-0.0506465
41.5589
39.1046
35.3383
21.0605
34.4089
32.2251
24.9561
14.6855
29.4329
28.9551
24.5324
18.1287
28.2252
27.4294
23.7959
17.9636
-28.5487
-51.4534
-0.685262
-7.75686
9.0726
-0.332006
9.69642
0.121827
-23.3525
-16.6356
-21.3007
-21.9496
-4.77294
-8.12278
-13.6463
-18.6017
-8.63595
-15.1319
-19.2257
-21.375
-7.80925
-13.4913
-16.9297
-18.4923
-20.9009
-21.1128
-19.1943
-17.1312
-15.9434
-16.8358
-17.016
-14.7944
-12.3293
-10.255
-8.55985
-7.72261
-7.34793
-7.72224
-8.03748
-8.56339
-8.93683
-8.8039
-8.5108
-7.18272
-5.86321
-4.20232
-3.20526
-2.94368
-3.09883
-4.01488
-4.36786
-5.17757
-5.48875
-5.50357
-5.22104
-4.37347
-3.57481
-2.15326
-1.1693
0.0258147
0.625348
0.636665
0.765376
0.125307
-22.1202
-21.8528
-19.9173
-18.6933
-17.889
-17.0928
-16.2293
-14.6468
-12.4254
-10.4027
-9.09865
-8.72227
-8.64027
-8.65655
-8.42415
-8.10226
-8.15605
-8.0402
-7.74189
-6.79482
-5.8237
-5.03721
-4.47152
-4.47076
-4.42827
-4.78025
-4.9119
-5.20734
-5.10819
-4.89629
-4.62078
-3.77016
-2.90469
-1.97152
-1.3133
-0.783883
-0.478493
-0.166646
-0.00585915
-0.0877521
-22.5429
-22.2133
-20.5163
-18.3932
-16.7397
-15.7592
-14.9616
-13.9688
-12.3827
-10.6266
-9.50588
-9.2733
-9.2863
-8.76004
-7.97904
-7.39995
-7.57378
-7.97869
-7.85003
-7.06841
-5.92907
-5.14646
-4.69514
-4.49373
-4.36361
-4.25653
-4.34196
-4.3583
-4.55198
-4.38929
-4.05589
-3.52978
-2.85739
-2.22406
-1.51738
-0.989869
-0.473057
-0.221227
-0.102735
0.0683427
-19.1377
-19.482
-19.0585
-17.8736
-16.3159
-15.2375
-14.5657
-13.8864
-12.603
-10.8707
-9.60599
-9.30283
-9.61171
-9.12131
-7.95633
-7.1909
-7.46351
-8.11562
-7.95323
-7.05591
-5.83784
-5.06927
-4.7223
-4.57496
-4.45939
-4.24004
-4.27875
-4.27227
-4.36623
-4.27008
-3.92765
-3.47492
-2.81888
-2.2332
-1.61974
-1.16398
-0.834055
-0.563163
-0.366503
-0.0893967
)
;

boundaryField
{
    inlet
    {
        type            zeroGradient;
    }
    outlet
    {
        type            fixedValue;
        value           uniform 0;
    }
    obstacle
    {
        type            zeroGradient;
    }
    upperWall
    {
        type            zeroGradient;
    }
    lowerWall
    {
        type            zeroGradient;
    }
    frontAndBack
    {
        type            empty;
    }
}


// ************************************************************************* //
