/*--------------------------------*- C++ -*----------------------------------*\
  =========                 |
  \\      /  F ield         | OpenFOAM: The Open Source CFD Toolbox
   \\    /   O peration     | Website:  https://openfoam.org
    \\  /    A nd           | Version:  10
     \\/     M anipulation  |
\*---------------------------------------------------------------------------*/
FoamFile
{
    format      ascii;
    class       volScalarField;
    location    "0.575";
    object      p;
}
// * * * * * * * * * * * * * * * * * * * * * * * * * * * * * * * * * * * * * //

dimensions      [0 2 -2 0 0 0 0];

internalField   nonuniform List<scalar> 
8000
(
-1.23135e-09
6.85309e-05
0.000230248
0.000477574
0.000804217
0.00120192
0.00166066
0.00216895
0.00271412
0.00328258
0.00386017
0.00443236
0.00498462
0.00550269
0.00597294
0.00638275
0.00672088
0.00697791
0.00714653
0.00721849
-6.73919e-05
2.33512e-06
0.000167128
0.000419059
0.000751742
0.00115676
0.0016239
0.00214147
0.00269659
0.00327548
0.00386375
0.00444664
0.00500939
0.00553748
0.00601702
0.00643509
0.00678017
0.00704258
0.00721483
0.00728827
-0.000232544
-0.000159762
1.25409e-05
0.000275896
0.000623545
0.00104663
0.00153444
0.00207478
0.00265427
0.0032586
0.00387288
0.00448182
0.00507009
0.00562256
0.0061247
0.00656291
0.00692495
0.0072005
0.00738149
0.0074586
-0.000495144
-0.000417312
-0.000232986
4.86194e-05
0.000420134
0.000871965
0.00139261
0.00196907
0.00258714
0.00323174
0.00388717
0.00453735
0.00516605
0.00575724
0.00629533
0.00676564
0.0071548
0.00745139
0.00764644
0.00772961
-0.000862254
-0.000777237
-0.00057593
-0.000268623
0.0001364
0.000628469
0.00119494
0.00182168
0.00249337
0.00319389
0.00390647
0.00461396
0.00529899
0.00594426
0.00653276
0.00704826
0.00747577
0.00780227
0.00801736
0.00810925
-0.00134373
-0.00124911
-0.00102521
-0.000683853
-0.000234618
0.000310316
0.000936755
0.00162905
0.0023705
0.00314365
0.00393048
0.00471254
0.00547108
0.0061872
0.00684212
0.00741752
0.00789618
0.00826281
0.00850493
0.00860869
-0.00195262
-0.00184554
-0.00159252
-0.00120747
-0.000701836
-8.98768e-05
0.000612162
0.00138672
0.0022154
0.0030792
0.0039587
0.00483401
0.00568482
0.00649041
0.00722976
0.00788195
0.00842676
0.00884573
0.0091234
0.00924289
-0.00270582
-0.00258277
-0.00229271
-0.00185251
-0.00127628
-0.000581097
0.000214093
0.00108936
0.0020243
0.00299825
0.00399031
0.00497916
0.00594287
0.00685873
0.00770314
0.00845193
0.00908094
0.00956732
0.00989126
0.0100315
-0.00362488
-0.00348135
-0.00314434
-0.00263497
-0.00197115
-0.00117387
-0.000265582
0.000730887
0.00179287
0.00289799
0.00402401
0.00514837
0.00624767
0.00729719
0.00827052
0.00913955
0.00987502
0.010448
0.0108323
0.0110001
-0.00473734
-0.00456722
-0.00417035
-0.00357406
-0.00280184
-0.00188007
-0.000835767
0.000304747
0.00151637
0.00277517
0.0040579
0.00534128
0.00660091
0.00781037
0.00894037
0.00995825
0.0108282
0.011513
0.0119769
0.012182
-0.00607867
-0.00587315
-0.00539891
-0.00469252
-0.00378574
-0.00271246
-0.0015056
-0.000195582
0.00119003
0.00262615
0.00408924
0.00555624
0.00700271
0.00840136
0.00972034
0.0109221
0.0119627
0.0127933
0.0133641
0.0136213
-0.00769538
-0.00744099
-0.00686466
-0.00601683
-0.00494178
-0.00368385
-0.00228345
-0.000775688
0.000809633
0.00244715
0.00411434
0.00578974
0.00745054
0.00907017
0.0106155
0.012044
0.0133024
0.0143263
0.0150444
0.0153777
-0.00965019
-0.00932516
-0.00861022
-0.00757706
-0.00628931
-0.00480543
-0.00317525
-0.0014389
0.000372489
0.00223478
0.00412839
0.00603565
0.00793786
0.00981172
0.0116253
0.0133331
0.0148716
0.0161564
0.0170835
0.0175343
-0.0120318
-0.0115975
-0.010688
-0.009406
-0.00784568
-0.0060841
-0.0041823
-0.00218448
-0.000121296
0.00198668
0.00412549
0.00628432
0.00845202
0.0106126
0.0127397
0.0147891
0.0166895
0.0183337
0.0195641
0.0202161
-0.0149739
-0.0143488
-0.0131614
-0.0115361
-0.00962192
-0.00751854
-0.0052975
-0.00300461
-0.00066669
0.0017028
0.00409904
0.00652182
0.00897216
0.011447
0.0139326
0.0163941
0.0187606
0.0209092
0.022587
0.0236222
-0.0187625
-0.0177104
-0.0161061
-0.0139924
-0.0116158
-0.00909213
-0.00649985
-0.00388041
-0.00125095
0.00138709
0.00404245
0.00672955
0.00946713
0.012272
0.0151528
0.0180987
0.021056
0.0239146
0.0262578
0.0280946
-0.023268
-0.0217231
-0.0195783
-0.0167756
-0.0137967
-0.010762
-0.0077469
-0.00477695
-0.00185081
0.00104948
0.0039511
0.00688544
0.00989464
0.0130225
0.0163131
0.0197991
0.0234746
0.0273329
0.0305884
0.0340032
-0.0317321
-0.0270531
-0.0238525
-0.0199065
-0.0160977
-0.0124428
-0.00896241
-0.00563652
-0.00242777
0.000709864
0.00382953
0.00696693
0.0102056
0.013617
0.0172947
0.021368
0.0259722
0.0314639
0.0363503
0.0436609
-0.0378
-0.0326385
-0.0282561
-0.0230677
-0.018342
-0.0140151
-0.0100624
-0.00640086
-0.00294668
0.000378205
0.00364547
0.00694882
0.0103451
0.0139386
0.0178467
0.0222269
0.0271155
0.0339527
0.0384798
0.0517572
-0.0676393
-0.038392
-0.0326819
-0.0254317
-0.0196331
-0.0148487
-0.0106249
-0.00678525
-0.00320858
0.00020711
0.00355171
0.00691398
0.0103889
0.0141063
0.0182752
0.023339
0.0296988
0.0402974
0.0509293
0.0888998
1.32496e-07
6.75323e-05
0.000229069
0.000476383
0.000803111
0.00120096
0.00165989
0.00216839
0.00271378
0.00328249
0.00386034
0.00443279
0.0049853
0.00550361
0.00597408
0.00638408
0.00672233
0.00697937
0.00714782
0.00721865
-6.60788e-05
2.46833e-06
0.000167025
0.000418857
0.000751515
0.00115655
0.00162372
0.00214134
0.00269653
0.00327549
0.00386383
0.00444681
0.00500965
0.00553782
0.00601744
0.00643556
0.00678066
0.007043
0.00721503
0.00728727
-0.000230882
-0.000159353
1.26954e-05
0.000275926
0.000623525
0.00104659
0.00153441
0.00207476
0.00265427
0.00325864
0.00387296
0.00448195
0.00507026
0.0056228
0.00612498
0.00656322
0.00692526
0.00720071
0.00738147
0.0074573
-0.000493208
-0.000416725
-0.000232674
4.8791e-05
0.00042024
0.00087204
0.00139267
0.00196912
0.0025872
0.00323182
0.00388727
0.00453747
0.00516621
0.00575744
0.00629557
0.00676589
0.00715503
0.00745152
0.00764631
0.0077281
-0.000860039
-0.000776499
-0.000575494
-0.000268344
0.000136601
0.000628629
0.00119508
0.0018218
0.00249349
0.003194
0.0039066
0.0046141
0.00529917
0.00594446
0.00653299
0.00704851
0.007476
0.00780239
0.00801718
0.00810756
-0.00134118
-0.00124821
-0.00102465
-0.000683461
-0.000234316
0.000310567
0.000936971
0.00162924
0.00237068
0.00314382
0.00393065
0.00471272
0.00547128
0.00618744
0.00684238
0.0074178
0.00789645
0.00826295
0.00850475
0.00860681
-0.00194965
-0.00184443
-0.00159179
-0.00120693
-0.00070141
-8.95145e-05
0.000612478
0.001387
0.00221565
0.00307944
0.00395893
0.00483424
0.00568507
0.00649069
0.00723008
0.0078823
0.0084271
0.00884593
0.00912323
0.0092408
-0.00270229
-0.00258139
-0.00229176
-0.00185179
-0.00127569
-0.000580587
0.00021454
0.00108976
0.00202465
0.00299856
0.0039906
0.00497945
0.00594318
0.00685907
0.00770353
0.00845236
0.00908138
0.00956762
0.00989116
0.0100292
-0.00362062
-0.00347959
-0.00314307
-0.00263398
-0.00197033
-0.00117316
-0.000264963
0.000731426
0.00179334
0.00289841
0.00402438
0.00514873
0.00624804
0.0072976
0.00827099
0.00914009
0.00987559
0.0104484
0.0108323
0.0109975
-0.00473208
-0.00456489
-0.00416862
-0.00357269
-0.0028007
-0.00187909
-0.000834925
0.000305468
0.00151699
0.0027757
0.00405836
0.00534171
0.00660135
0.00781085
0.00894094
0.00995894
0.010829
0.0115137
0.0119771
0.0121792
-0.00607199
-0.00586997
-0.00539651
-0.00469061
-0.00378415
-0.00271112
-0.00150448
-0.000194648
0.0011908
0.00262679
0.00408979
0.00555672
0.00700318
0.00840188
0.00972098
0.0109229
0.0119637
0.0127943
0.0133647
0.0136184
-0.00768663
-0.00743647
-0.00686121
-0.00601412
-0.00493958
-0.00368206
-0.002282
-0.000774529
0.000810555
0.00244788
0.00411494
0.00579024
0.00745102
0.00907069
0.0106161
0.0120449
0.0133037
0.0143278
0.0150455
0.0153749
-0.00963819
-0.00931837
-0.00860517
-0.0075732
-0.00628631
-0.00480311
-0.00317347
-0.00143756
0.000373502
0.00223553
0.00412894
0.00603607
0.00793819
0.00981207
0.0116258
0.0133341
0.0148731
0.0161585
0.0170854
0.0175322
-0.0120142
-0.0115869
-0.0106806
-0.00940056
-0.00784176
-0.0060813
-0.00418032
-0.0021831
-0.000120349
0.00198729
0.00412583
0.00628443
0.00845197
0.0106125
0.0127398
0.0147897
0.0166911
0.0183367
0.0195673
0.0202159
-0.0149455
-0.0143316
-0.0131506
-0.0115288
-0.00961727
-0.00751562
-0.0052957
-0.00300356
-0.000666172
0.00170291
0.0040988
0.00652128
0.00897136
0.011446
0.0139316
0.0163935
0.0187614
0.0209132
0.0225915
0.0236273
-0.0187195
-0.0176836
-0.016092
-0.013984
-0.0116117
-0.0090903
-0.00649927
-0.00388058
-0.0012516
0.00138609
0.0040411
0.00672782
0.00946489
0.0122691
0.0151494
0.0180951
0.0210533
0.0239183
0.0262605
0.0281133
-0.023144
-0.0216685
-0.0195603
-0.0167692
-0.013797
-0.0107646
-0.00775007
-0.00478017
-0.00185396
0.00104624
0.00394746
0.00688126
0.00988933
0.0130154
0.0163036
0.0197867
0.0234587
0.027328
0.0305698
0.0340431
-0.0316416
-0.0269971
-0.0238642
-0.0199207
-0.0161145
-0.0124577
-0.00897456
-0.00564635
-0.00243608
0.000702166
0.00382101
0.00695777
0.0101939
0.0136009
0.0172727
0.02134
0.0259373
0.0314673
0.0363348
0.0437807
-0.0374625
-0.0326552
-0.0283402
-0.023155
-0.0184137
-0.0140662
-0.0100985
-0.00642719
-0.00296721
0.000360531
0.00362882
0.00692933
0.0103194
0.0139009
0.0177861
0.0221284
0.0269261
0.0337894
0.0380665
0.0517821
-0.0672412
-0.0380813
-0.0327237
-0.0255101
-0.0196994
-0.0149042
-0.0106667
-0.00681638
-0.00323345
0.000184902
0.00352908
0.0068871
0.010353
0.0140546
0.0181947
0.0232325
0.0295093
0.0402485
0.0509649
0.0896788
3.31397e-07
6.75452e-05
0.000228997
0.000476257
0.000802964
0.00120082
0.00165977
0.00216831
0.00271376
0.00328253
0.00386043
0.00443295
0.00498553
0.0055039
0.00597442
0.00638445
0.00672271
0.00697971
0.00714808
0.00721871
-6.56547e-05
2.6789e-06
0.000167145
0.000418907
0.000751525
0.00115654
0.00162371
0.00214135
0.00269655
0.00327554
0.00386392
0.00444693
0.0050098
0.00553801
0.00601765
0.00643579
0.00678087
0.00704316
0.0072151
0.00728714
-0.000230306
-0.000159009
1.2926e-05
0.000276075
0.000623622
0.00104666
0.00153446
0.00207482
0.00265433
0.00325871
0.00387304
0.00448205
0.00507039
0.00562295
0.00612515
0.00656338
0.00692539
0.00720078
0.00738144
0.00745705
-0.000492478
-0.000416248
-0.000232328
4.90402e-05
0.000420424
0.000872181
0.00139279
0.00196922
0.00258729
0.0032319
0.00388736
0.00453757
0.00516633
0.00575756
0.00629569
0.006766
0.00715511
0.00745153
0.00764621
0.00772777
-0.000859139
-0.000775882
-0.000575026
-0.00026799
0.000136875
0.000628845
0.00119525
0.00182194
0.00249361
0.00319412
0.00390671
0.00461421
0.00529928
0.00594457
0.0065331
0.0070486
0.00747606
0.00780236
0.00801704
0.00810715
-0.00134008
-0.00124742
-0.00102404
-0.000682988
-0.000233941
0.000310868
0.000937216
0.00162944
0.00237084
0.00314396
0.00393078
0.00471284
0.0054714
0.00618755
0.00684249
0.00741789
0.00789649
0.0082629
0.00850457
0.00860634
-0.00194829
-0.00184344
-0.001591
-0.00120631
-0.000700911
-8.9111e-05
0.000612806
0.00138727
0.00221587
0.00307961
0.00395908
0.00483437
0.00568519
0.0064908
0.00723018
0.00788238
0.00842713
0.00884588
0.00912305
0.00924027
-0.00270059
-0.00258012
-0.00229073
-0.00185097
-0.00127503
-0.000580056
0.000214966
0.00109009
0.00202491
0.00299877
0.00399076
0.00497958
0.00594329
0.00685917
0.00770362
0.00845244
0.00908141
0.00956757
0.00989097
0.0100286
-0.00361845
-0.00347794
-0.00314174
-0.00263291
-0.00196947
-0.00117247
-0.000264421
0.000731844
0.00179365
0.00289864
0.00402455
0.00514885
0.00624813
0.00729768
0.00827107
0.00914016
0.00987563
0.0104484
0.0108321
0.0109969
-0.00472925
-0.00456271
-0.00416684
-0.00357127
-0.00279956
-0.00187821
-0.000834251
0.000305966
0.00151734
0.00277594
0.0040585
0.00534179
0.00660137
0.00781086
0.00894095
0.00995895
0.010829
0.0115137
0.011977
0.0121785
-0.00606824
-0.00586703
-0.00539411
-0.00468872
-0.00378268
-0.00271001
-0.00150367
-0.000194085
0.00119116
0.00262699
0.00408986
0.00555671
0.00700312
0.0084018
0.00972091
0.0109228
0.0119637
0.0127943
0.0133646
0.0136178
-0.00768153
-0.0074324
-0.00685796
-0.00601161
-0.0049377
-0.00368071
-0.00228108
-0.000773949
0.000810866
0.00244798
0.00411487
0.00579007
0.00745078
0.00907043
0.0106159
0.0120448
0.0133036
0.0143278
0.0150455
0.0153744
-0.00963109
-0.00931265
-0.00860072
-0.0075699
-0.00628399
-0.00480156
-0.00317252
-0.00143706
0.000373649
0.00223541
0.00412863
0.00603561
0.00793764
0.00981149
0.0116253
0.0133337
0.0148729
0.0161586
0.0170855
0.0175321
-0.012004
-0.0115788
-0.0106745
-0.00939635
-0.00783903
-0.00607969
-0.00417952
-0.00218288
-0.000120554
0.00198679
0.00412509
0.00628349
0.00845088
0.0106113
0.0127386
0.0147887
0.0166904
0.0183366
0.0195677
0.0202166
-0.0149303
-0.01432
-0.0131426
-0.0115237
-0.00961442
-0.00751432
-0.00529543
-0.00300396
-0.000667
0.00170175
0.00409736
0.00651954
0.00896931
0.0114437
0.0139291
0.0163912
0.0187596
0.0209128
0.0225922
0.0236298
-0.0186973
-0.0176675
-0.016082
-0.0139785
-0.0116094
-0.00909002
-0.00650018
-0.00388209
-0.00125349
0.00138387
0.0040385
0.00672474
0.00946122
0.0122648
0.0151446
0.0180902
0.021049
0.0239166
0.0262609
0.0281196
-0.0231037
-0.0216445
-0.0195483
-0.0167643
-0.0137967
-0.0107666
-0.00775311
-0.00478363
-0.00185764
0.00104232
0.0039431
0.00687615
0.00988314
0.0130079
0.0162945
0.0197766
0.0234484
0.0273226
0.0305652
0.0340539
-0.031596
-0.0269694
-0.0238554
-0.0199198
-0.0161187
-0.0124639
-0.00898128
-0.0056529
-0.0024424
0.000695824
0.00381438
0.0069498
0.010184
0.0135885
0.0172576
0.0213232
0.0259206
0.031463
0.0363347
0.0438104
-0.0373816
-0.0326311
-0.0283369
-0.0231637
-0.0184272
-0.0140799
-0.010111
-0.00643822
-0.00297722
0.000350814
0.00361836
0.00691755
0.0103048
0.0138816
0.0177601
0.0220942
0.0268779
0.0337553
0.0380096
0.0518016
-0.0671307
-0.0380114
-0.0327121
-0.0255157
-0.0197124
-0.0149193
-0.010681
-0.00682913
-0.00324506
0.000173582
0.00351695
0.00687287
0.010335
0.0140309
0.0181635
0.0231959
0.0294661
0.0402378
0.0509841
0.0898095
5.50848e-07
6.76036e-05
0.000228965
0.000476171
0.000802854
0.00120071
0.00165968
0.00216826
0.00271375
0.00328257
0.00386053
0.00443311
0.00498574
0.00550416
0.00597472
0.00638477
0.00672303
0.00697999
0.00714829
0.00721877
-6.52644e-05
2.91126e-06
0.000167277
0.000418972
0.000751548
0.00115654
0.00162372
0.00214136
0.00269658
0.0032756
0.00386401
0.00444706
0.00500996
0.0055382
0.00601786
0.006436
0.00678106
0.0070433
0.00721517
0.00728704
-0.000229775
-0.000158646
1.31842e-05
0.000276255
0.000623748
0.00104675
0.00153454
0.00207488
0.0026544
0.00325879
0.00387314
0.00448216
0.00507052
0.00562309
0.0061253
0.00656352
0.00692551
0.00720085
0.00738141
0.00745685
-0.0004918
-0.000415753
-0.000231949
4.93276e-05
0.000420644
0.000872353
0.00139292
0.00196934
0.00258739
0.003232
0.00388746
0.00453768
0.00516644
0.00575768
0.00629581
0.00676611
0.00715519
0.00745154
0.00764612
0.00772749
-0.000858297
-0.000775242
-0.000574519
-0.00026759
0.000137192
0.000629099
0.00119546
0.00182211
0.00249375
0.00319424
0.00390682
0.00461432
0.00529938
0.00594467
0.0065332
0.00704869
0.0074761
0.00780233
0.00801689
0.00810681
-0.00133904
-0.00124661
-0.00102338
-0.000682457
-0.000233514
0.000311212
0.000937492
0.00162966
0.00237102
0.00314411
0.0039309
0.00471295
0.0054715
0.00618764
0.00684257
0.00741796
0.00789651
0.00826285
0.0085044
0.00860594
-0.00194699
-0.00184241
-0.00159015
-0.00120562
-0.00070035
-8.866e-05
0.000613164
0.00138755
0.00221609
0.00307978
0.00395921
0.00483448
0.00568528
0.00649088
0.00723025
0.00788244
0.00842715
0.00884581
0.00912284
0.00923982
-0.00269896
-0.00257879
-0.00228963
-0.00185007
-0.0012743
-0.000579475
0.000215421
0.00109044
0.00202518
0.00299896
0.0039909
0.00497968
0.00594337
0.00685924
0.00770368
0.00845249
0.00908142
0.00956749
0.00989074
0.0100281
-0.00361636
-0.00347622
-0.0031403
-0.00263174
-0.00196852
-0.00117173
-0.000263854
0.000732266
0.00179396
0.00289884
0.00402468
0.00514893
0.00624818
0.00729771
0.00827109
0.00914018
0.00987563
0.0104483
0.0108319
0.0109964
-0.00472655
-0.00456045
-0.00416496
-0.00356974
-0.00279836
-0.00187728
-0.000833562
0.000306455
0.00151767
0.00277613
0.00405859
0.0053418
0.00660135
0.00781082
0.00894091
0.00995893
0.010829
0.0115136
0.0119768
0.012178
-0.00606466
-0.00586401
-0.00539161
-0.00468672
-0.00378114
-0.00270887
-0.00150286
-0.000193549
0.00119148
0.00262713
0.00408986
0.00555661
0.00700295
0.0084016
0.00972073
0.0109227
0.0119636
0.0127942
0.0133644
0.0136172
-0.0076767
-0.00742832
-0.00685462
-0.00600901
-0.00493577
-0.00367934
-0.00228018
-0.000773415
0.000811106
0.00244799
0.00411469
0.00578974
0.00745035
0.00906996
0.0106155
0.0120444
0.0133034
0.0143277
0.0150453
0.015374
-0.00962444
-0.00930703
-0.00859626
-0.00756656
-0.00628162
-0.0048
-0.0031716
-0.00143663
0.000373705
0.00223516
0.00412813
0.0060349
0.00793678
0.00981055
0.0116243
0.0133329
0.0148724
0.0161584
0.0170855
0.017532
-0.0119947
-0.011571
-0.0106686
-0.00939214
-0.00783628
-0.00607808
-0.00417875
-0.00218274
-0.000120875
0.00198608
0.00412406
0.00628219
0.00844933
0.0106096
0.0127368
0.0147871
0.0166893
0.0183362
0.0195679
0.0202171
-0.0149167
-0.0143091
-0.0131349
-0.0115187
-0.00961151
-0.00751296
-0.00529514
-0.00300441
-0.000667994
0.00170032
0.00409553
0.00651731
0.0089667
0.0114408
0.013926
0.0163883
0.0187573
0.0209118
0.0225923
0.0236316
-0.0186776
-0.0176523
-0.0160723
-0.0139729
-0.011607
-0.00908955
-0.00650092
-0.00388363
-0.00125558
0.00138133
0.00403549
0.00672118
0.00945701
0.0122599
0.0151392
0.0180847
0.0210441
0.023914
0.0262601
0.0281243
-0.0230697
-0.0216223
-0.0195367
-0.0167593
-0.0137959
-0.0107681
-0.00775582
-0.00478696
-0.00186136
0.00103822
0.00393849
0.00687072
0.00987664
0.0130001
0.0162856
0.0197667
0.0234387
0.0273165
0.03056
0.0340618
-0.03156
-0.0269435
-0.0238462
-0.0199183
-0.0161219
-0.0124691
-0.00898703
-0.00565876
-0.0024483
0.000689747
0.00380803
0.00694202
0.0101744
0.0135767
0.0172435
0.0213077
0.0259053
0.0314569
0.0363318
0.0438352
-0.0373135
-0.0325979
-0.0283295
-0.0231682
-0.018437
-0.0140907
-0.0101212
-0.00644755
-0.00298598
0.000342044
0.00360866
0.00690676
0.0102916
0.0138647
0.0177377
0.0220652
0.0268385
0.0337263
0.037963
0.0518183
-0.0670481
-0.0379486
-0.0326966
-0.0255192
-0.0197229
-0.0149318
-0.010693
-0.00684006
-0.00325523
0.000163497
0.00350608
0.00686029
0.0103195
0.0140111
0.0181379
0.023166
0.0294317
0.0402279
0.0509863
0.0899071
7.86613e-07
6.77831e-05
0.000229096
0.00047626
0.000802918
0.00120076
0.00165972
0.0021683
0.0027138
0.00328264
0.00386062
0.00443322
0.00498588
0.00550432
0.0059749
0.00638495
0.00672319
0.00698013
0.00714838
0.00721881
-6.49507e-05
3.1608e-06
0.00016747
0.000419117
0.000751658
0.00115663
0.00162379
0.00214142
0.00269665
0.00327567
0.0038641
0.00444716
0.00501008
0.00553833
0.00601799
0.00643613
0.00678118
0.00704338
0.0072152
0.00728702
-0.000229366
-0.000158308
1.34581e-05
0.000276471
0.000623918
0.00104689
0.00153464
0.00207498
0.00265449
0.00325887
0.00387323
0.00448226
0.00507062
0.0056232
0.0061254
0.00656362
0.00692559
0.00720088
0.0073814
0.00745678
-0.000491275
-0.000415306
-0.000231577
4.96308e-05
0.000420888
0.000872549
0.00139308
0.00196947
0.0025875
0.0032321
0.00388756
0.00453777
0.00516653
0.00575777
0.00629589
0.00676618
0.00715522
0.00745154
0.00764606
0.00772736
-0.00085763
-0.000774664
-0.000574029
-0.000267184
0.000137523
0.000629367
0.00119568
0.00182228
0.00249389
0.00319436
0.00390692
0.0046144
0.00529946
0.00594475
0.00653326
0.00704872
0.00747611
0.00780229
0.00801679
0.00810663
-0.00133819
-0.00124587
-0.00102274
-0.000681926
-0.000233078
0.000311564
0.000937773
0.00162989
0.0023712
0.00314424
0.00393101
0.00471303
0.00547156
0.0061877
0.00684261
0.00741797
0.00789649
0.00826278
0.00850426
0.00860572
-0.00194592
-0.00184146
-0.00158933
-0.00120493
-0.000699786
-8.82071e-05
0.000613521
0.00138783
0.00221629
0.00307993
0.00395932
0.00483455
0.00568533
0.00649091
0.00723026
0.00788242
0.0084271
0.00884571
0.00912267
0.00923956
-0.00269759
-0.00257758
-0.00228858
-0.00184919
-0.00127358
-0.000578902
0.000215864
0.00109077
0.00202541
0.00299912
0.003991
0.00497973
0.00594339
0.00685923
0.00770366
0.00845244
0.00908135
0.00956737
0.00989055
0.0100278
-0.0036146
-0.00347464
-0.00313893
-0.0026306
-0.00196761
-0.00117102
-0.000263317
0.000732649
0.00179421
0.00289899
0.00402474
0.00514893
0.00624813
0.00729764
0.00827101
0.00914009
0.00987552
0.0104482
0.0108317
0.010996
-0.00472424
-0.00455838
-0.00416318
-0.00356828
-0.0027972
-0.0018764
-0.000832926
0.000306882
0.00151792
0.00277624
0.00405859
0.00534172
0.0066012
0.00781064
0.00894073
0.00995875
0.0108288
0.0115134
0.0119765
0.0121776
-0.00606161
-0.00586128
-0.00538928
-0.00468484
-0.00377969
-0.00270781
-0.00150213
-0.000193105
0.00119169
0.00262715
0.00408973
0.00555637
0.00700263
0.00840125
0.00972037
0.0109224
0.0119633
0.012794
0.0133641
0.0136169
-0.00767262
-0.00742467
-0.00685157
-0.00600661
-0.00493398
-0.0036781
-0.00227939
-0.000773009
0.000811204
0.00244784
0.00411435
0.00578925
0.00744975
0.0090693
0.0106148
0.0120438
0.0133029
0.0143274
0.015045
0.0153737
-0.00961892
-0.00930213
-0.00859227
-0.00756352
-0.00627948
-0.00479862
-0.00317084
-0.00143636
0.000373578
0.00223473
0.00412745
0.00603402
0.00793575
0.00980942
0.0116232
0.0133319
0.0148716
0.0161578
0.0170852
0.0175317
-0.0119871
-0.0115644
-0.0106634
-0.0093884
-0.00783382
-0.00607666
-0.00417815
-0.00218276
-0.000121373
0.00198521
0.00412287
0.00628072
0.00844764
0.0106078
0.012735
0.0147854
0.0166879
0.0183353
0.0195675
0.0202171
-0.0149062
-0.0143002
-0.0131282
-0.0115142
-0.00960887
-0.00751172
-0.00529494
-0.00300495
-0.000669091
0.00169878
0.0040936
0.006515
0.00896403
0.0114378
0.0139229
0.0163853
0.0187549
0.0209103
0.0225917
0.0236321
-0.0186633
-0.0176406
-0.0160641
-0.0139679
-0.0116045
-0.00908887
-0.00650148
-0.00388502
-0.00125756
0.00137886
0.00403256
0.00671772
0.00945299
0.0122554
0.0151343
0.0180799
0.0210399
0.0239114
0.026259
0.028126
-0.0230487
-0.0216065
-0.0195268
-0.0167541
-0.0137941
-0.0107685
-0.0077576
-0.00478958
-0.00186454
0.00103455
0.00393429
0.00686579
0.00987085
0.0129934
0.0162781
0.0197591
0.0234316
0.027312
0.0305573
0.0340647
-0.0315357
-0.0269246
-0.023836
-0.0199136
-0.0161213
-0.0124712
-0.0089905
-0.00566296
-0.00245296
0.000684676
0.00380258
0.00693539
0.0101665
0.0135674
0.0172329
0.0212966
0.0258954
0.031452
0.0363305
0.0438444
-0.0372781
-0.0325743
-0.0283179
-0.0231641
-0.0184382
-0.0140948
-0.0101266
-0.0064535
-0.00299226
0.000335295
0.00360094
0.0068982
0.0102814
0.0138524
0.017723
0.0220482
0.0268196
0.0337137
0.03795
0.051826
-0.067005
-0.037916
-0.0326818
-0.0255141
-0.0197242
-0.0149366
-0.0106993
-0.00684688
-0.00326233
0.000155956
0.0034977
0.00685067
0.010308
0.0139972
0.0181215
0.0231483
0.0294147
0.0402214
0.050987
0.0899361
1.01103e-06
6.79742e-05
0.00022925
0.00047638
0.000803009
0.00120083
0.00165978
0.00216835
0.00271386
0.0032827
0.0038607
0.00443331
0.00498598
0.00550443
0.00597501
0.00638506
0.00672329
0.00698021
0.00714844
0.00721883
-6.46798e-05
3.39799e-06
0.000167668
0.000419277
0.000751785
0.00115673
0.00162387
0.0021415
0.00269672
0.00327575
0.00386417
0.00444724
0.00501017
0.00553843
0.00601809
0.00643622
0.00678125
0.00704344
0.00721523
0.00728701
-0.000229025
-0.000158003
1.37189e-05
0.000276688
0.000624095
0.00104703
0.00153476
0.00207508
0.00265457
0.00325896
0.0038733
0.00448234
0.00507071
0.00562328
0.00612548
0.00656369
0.00692563
0.00720091
0.00738139
0.00745674
-0.00049084
-0.000414913
-0.000231234
4.99199e-05
0.000421128
0.000872745
0.00139324
0.0019696
0.00258761
0.0032322
0.00388764
0.00453784
0.0051666
0.00575783
0.00629595
0.00676622
0.00715524
0.00745153
0.00764601
0.00772728
-0.000857076
-0.000774159
-0.000573584
-0.000266805
0.000137839
0.000629626
0.00119588
0.00182245
0.00249403
0.00319446
0.003907
0.00461447
0.00529952
0.00594479
0.0065333
0.00704874
0.0074761
0.00780225
0.00801671
0.00810652
-0.00133749
-0.00124522
-0.00102217
-0.000681436
-0.000232669
0.000311897
0.000938039
0.00163009
0.00237135
0.00314436
0.00393109
0.00471309
0.00547161
0.00618772
0.00684262
0.00741796
0.00789646
0.00826271
0.00850415
0.00860557
-0.00194502
-0.00184063
-0.0015886
-0.0012043
-0.000699264
-8.77858e-05
0.000613851
0.00138807
0.00221647
0.00308006
0.0039594
0.0048346
0.00568535
0.00649091
0.00723025
0.00788239
0.00842704
0.00884562
0.00912253
0.00923938
-0.00269643
-0.00257651
-0.00228763
-0.00184838
-0.00127292
-0.000578375
0.000216266
0.00109107
0.00202561
0.00299925
0.00399106
0.00497975
0.00594337
0.00685918
0.00770359
0.00845236
0.00908125
0.00956724
0.00989037
0.0100276
-0.00361311
-0.00347326
-0.00313772
-0.00262957
-0.00196677
-0.00117037
-0.000262835
0.000732983
0.00179442
0.0028991
0.00402477
0.00514889
0.00624805
0.00729752
0.00827087
0.00913994
0.00987536
0.010448
0.0108315
0.0109958
-0.0047223
-0.00455659
-0.00416161
-0.00356696
-0.00279615
-0.00187561
-0.000832366
0.000307243
0.00151811
0.0027763
0.00405854
0.00534158
0.00660101
0.00781041
0.00894048
0.00995851
0.0108286
0.0115132
0.0119762
0.0121773
-0.00605906
-0.00585893
-0.00538725
-0.00468317
-0.0037784
-0.00270687
-0.0015015
-0.000192742
0.00119183
0.00262711
0.00408955
0.00555607
0.00700226
0.00840083
0.00971995
0.010922
0.011963
0.0127937
0.0133638
0.0136166
-0.00766925
-0.00742159
-0.00684895
-0.00600451
-0.00493241
-0.00367701
-0.00227873
-0.000772692
0.000811234
0.00244764
0.00411396
0.00578871
0.00744911
0.00906861
0.0106141
0.0120432
0.0133024
0.0143269
0.0150447
0.0153733
-0.00961445
-0.00929808
-0.00858889
-0.00756091
-0.00627761
-0.00479742
-0.00317019
-0.00143617
0.00037341
0.00223427
0.00412674
0.00603312
0.0079347
0.0098083
0.0116221
0.0133308
0.0148707
0.0161572
0.0170847
0.0175314
-0.0119812
-0.0115591
-0.0106591
-0.00938521
-0.00783168
-0.00607542
-0.00417763
-0.0021828
-0.000121869
0.00198435
0.00412171
0.0062793
0.00844601
0.010606
0.0127332
0.0147837
0.0166865
0.0183343
0.0195669
0.0202168
-0.0148983
-0.0142933
-0.0131228
-0.0115104
-0.00960655
-0.00751058
-0.0052947
-0.00300541
-0.000670076
0.00169737
0.00409181
0.00651288
0.00896161
0.0114352
0.0139202
0.0163827
0.0187526
0.0209088
0.0225908
0.023632
-0.0186529
-0.0176316
-0.0160575
-0.0139636
-0.0116021
-0.00908804
-0.00650176
-0.00388609
-0.00125922
0.00137671
0.00402997
0.00671467
0.00944951
0.0122515
0.0151302
0.0180759
0.0210365
0.023909
0.0262578
0.0281264
-0.0230344
-0.021595
-0.019519
-0.0167494
-0.013792
-0.0107682
-0.00775865
-0.00479149
-0.00186707
0.00103151
0.00393076
0.00686165
0.00986606
0.0129881
0.0162724
0.0197533
0.0234264
0.0273084
0.0305552
0.0340657
-0.0315191
-0.0269109
-0.0238274
-0.0199091
-0.0161199
-0.0124717
-0.00899252
-0.00566586
-0.00245647
0.000680661
0.00379815
0.00693005
0.0101603
0.0135603
0.0172251
0.0212887
0.0258884
0.031448
0.0363289
0.0438485
-0.0372555
-0.0325573
-0.028308
-0.0231597
-0.0184376
-0.0140965
-0.0101297
-0.00645742
-0.00299676
0.000330205
0.003595
0.0068916
0.0102738
0.0138435
0.0177128
0.0220372
0.0268082
0.0337059
0.0379427
0.0518292
-0.0669789
-0.0378948
-0.0326701
-0.0255092
-0.0197238
-0.0149388
-0.0107029
-0.00685134
-0.00326735
0.00015036
0.00349137
0.00684343
0.0102996
0.0139874
0.0181105
0.0231369
0.0294041
0.0402164
0.0509857
0.0899493
1.21105e-06
6.8157e-05
0.000229409
0.000476514
0.000803119
0.00120092
0.00165986
0.00216842
0.00271392
0.00328277
0.00386076
0.00443338
0.00498605
0.0055045
0.00597508
0.00638513
0.00672335
0.00698025
0.00714847
0.00721885
-6.44506e-05
3.60895e-06
0.000167854
0.000419434
0.000751917
0.00115684
0.00162396
0.00214158
0.00269679
0.00327582
0.00386424
0.00444731
0.00501024
0.00553849
0.00601816
0.00643628
0.0067813
0.00704347
0.00721524
0.00728701
-0.000228744
-0.000157743
1.395e-05
0.000276886
0.000624262
0.00104717
0.00153488
0.00207517
0.00265466
0.00325903
0.00387337
0.0044824
0.00507077
0.00562333
0.00612553
0.00656373
0.00692566
0.00720092
0.00738139
0.00745672
-0.000490486
-0.000414583
-0.000230939
5.01754e-05
0.000421343
0.000872924
0.00139339
0.00196972
0.00258771
0.00323228
0.00388771
0.0045379
0.00516665
0.00575788
0.00629598
0.00676624
0.00715525
0.00745152
0.00764598
0.00772724
-0.000856627
-0.000773738
-0.000573205
-0.000266476
0.000138117
0.000629855
0.00119607
0.0018226
0.00249414
0.00319455
0.00390707
0.00461453
0.00529956
0.00594482
0.00653331
0.00704875
0.00747608
0.00780222
0.00801666
0.00810645
-0.00133692
-0.00124468
-0.00102169
-0.000681014
-0.000232314
0.000312188
0.00093827
0.00163027
0.00237149
0.00314446
0.00393116
0.00471314
0.00547163
0.00618773
0.00684262
0.00741794
0.00789642
0.00826265
0.00850407
0.00860547
-0.00194429
-0.00183994
-0.00158798
-0.00120376
-0.000698814
-8.74218e-05
0.000614135
0.00138829
0.00221663
0.00308016
0.00395946
0.00483463
0.00568535
0.00649089
0.00723021
0.00788233
0.00842697
0.00884552
0.00912242
0.00923924
-0.00269549
-0.00257562
-0.00228684
-0.0018477
-0.00127235
-0.000577925
0.000216609
0.00109131
0.00202578
0.00299934
0.0039911
0.00497974
0.00594333
0.00685912
0.00770351
0.00845227
0.00908114
0.00956711
0.00989022
0.0100274
-0.00361189
-0.00347212
-0.0031367
-0.0026287
-0.00196606
-0.00116982
-0.000262431
0.000733258
0.00179458
0.00289917
0.00402476
0.00514883
0.00624794
0.00729738
0.00827072
0.00913978
0.00987519
0.0104478
0.0108313
0.0109956
-0.00472072
-0.00455511
-0.0041603
-0.00356587
-0.00279528
-0.00187494
-0.0008319
0.000307536
0.00151826
0.00277632
0.00405846
0.00534142
0.0066008
0.00781017
0.00894022
0.00995825
0.0108283
0.0115129
0.011976
0.0121771
-0.00605701
-0.00585702
-0.00538558
-0.00468179
-0.00377732
-0.00270608
-0.00150099
-0.000192455
0.00119192
0.00262704
0.00408935
0.00555578
0.0070019
0.00840042
0.00971953
0.0109216
0.0119626
0.0127933
0.0133635
0.0136162
-0.00766659
-0.00741912
-0.00684682
-0.00600279
-0.00493111
-0.00367611
-0.00227818
-0.000772449
0.000811227
0.00244743
0.00411358
0.0057882
0.00744851
0.00906795
0.0106134
0.0120426
0.0133018
0.0143264
0.0150443
0.0153729
-0.00961098
-0.00929489
-0.00858619
-0.00755879
-0.00627608
-0.00479642
-0.00316966
-0.00143602
0.000373235
0.00223383
0.0041261
0.00603231