/*--------------------------------*- C++ -*----------------------------------*\
  =========                 |
  \\      /  F ield         | OpenFOAM: The Open Source CFD Toolbox
   \\    /   O peration     | Website:  https://openfoam.org
    \\  /    A nd           | Version:  10
     \\/     M anipulation  |
\*---------------------------------------------------------------------------*/
FoamFile
{
    format      ascii;
    class       surfaceScalarField;
    location    "2.575";
    object      phi;
}
// * * * * * * * * * * * * * * * * * * * * * * * * * * * * * * * * * * * * * //

dimensions      [0 3 -1 0 0 0 0];

internalField   nonuniform List<scalar> 
22800
(
-4.20396e-06
4.35009e-06
-1.49712e-07
-1.10724e-05
6.72971e-06
1.38694e-07
-1.81731e-05
6.88924e-06
2.11454e-07
-2.49859e-05
6.56933e-06
2.43492e-07
-3.12941e-05
6.0698e-06
2.38411e-07
-3.69343e-05
5.42984e-06
2.10351e-07
-4.17575e-05
4.65659e-06
1.6663e-07
-4.5623e-05
3.75548e-06
1.10042e-07
-4.83988e-05
2.73399e-06
4.17347e-08
-4.99671e-05
1.60243e-06
-3.41107e-08
-5.02236e-05
3.78002e-07
-1.21468e-07
-4.90842e-05
-9.24572e-07
-2.14793e-07
-4.65028e-05
-2.26986e-06
-3.11621e-07
-4.24742e-05
-3.62065e-06
-4.0792e-07
-3.70482e-05
-4.92832e-06
-4.97683e-07
-3.03415e-05
-6.13468e-06
-5.72045e-07
-2.25557e-05
-7.16998e-06
-6.15762e-07
-1.40277e-05
-7.92337e-06
-6.04627e-07
-5.5002e-06
-8.00236e-06
-5.25161e-07
-5.36931e-06
-1.30889e-07
-6.70446e-06
1.15897e-05
-5.35146e-07
-1.67927e-05
1.70643e-05
-2.46306e-07
-2.71267e-05
1.73768e-05
-1.5357e-07
-3.70002e-05
1.65297e-05
-8.68186e-08
-4.60993e-05
1.52217e-05
-5.28275e-08
-5.41853e-05
1.35544e-05
-3.85373e-08
-6.10461e-05
1.1554e-05
-3.65455e-08
-6.64877e-05
9.24174e-06
-4.4728e-08
-7.03331e-05
6.6423e-06
-6.28743e-08
-7.24234e-05
3.78414e-06
-9.14165e-08
-7.2636e-05
7.19453e-07
-1.28792e-07
-7.08634e-05
-2.52005e-06
-1.77189e-07
-6.70504e-05
-5.85205e-06
-2.30828e-07
-6.12032e-05
-9.18045e-06
-2.87393e-07
-5.33993e-05
-1.23909e-05
-3.41283e-07
-4.38066e-05
-1.53442e-05
-3.83244e-07
-3.27072e-05
-1.78732e-05
-3.96154e-07
-2.05655e-05
-1.97112e-05
-3.53811e-07
-8.37327e-06
-1.99462e-05
-2.4842e-07
-1.39205e-05
1.7787e-07
-7.32726e-06
1.96008e-05
-6.83826e-07
-1.83047e-05
2.84362e-05
-3.94564e-07
-2.95247e-05
2.88905e-05
-2.93605e-07
-4.0235e-05
2.74537e-05
-2.13782e-07
-5.01039e-05
2.52568e-05
-1.66177e-07
-5.88796e-05
2.24667e-05
-1.3667e-07
-6.63378e-05
1.91305e-05
-1.18367e-07
-7.22729e-05
1.52868e-05
-1.09916e-07
-7.64973e-05
1.09782e-05
-1.11514e-07
-7.88461e-05
6.25662e-06
-1.23634e-07
-7.91729e-05
1.19237e-06
-1.46091e-07
-7.73482e-05
-4.16599e-06
-1.78841e-07
-7.33113e-05
-9.66874e-06
-2.20143e-07
-6.70495e-05
-1.51754e-05
-2.66844e-07
-5.86256e-05
-2.0502e-05
-3.12802e-07
-4.82023e-05
-2.54194e-05
-3.48113e-07
-3.60727e-05
-2.96488e-05
-3.54061e-07
-2.27371e-05
-3.27449e-05
-3.01914e-07
-9.28445e-06
-3.3214e-05
-1.84882e-07
-2.34745e-05
2.69636e-07
-7.75059e-06
2.81656e-05
-8.14172e-07
-1.94011e-05
4.0609e-05
-5.2223e-07
-3.13072e-05
4.1211e-05
-4.14486e-07
-4.26801e-05
3.91509e-05
-3.24267e-07
-5.3177e-05
3.60197e-05
-2.65959e-07
-6.25393e-05
3.20542e-05
-2.25209e-07
-7.0537e-05
2.73234e-05
-1.95221e-07
-7.69575e-05
2.18823e-05
-1.74987e-07
-8.16041e-05
1.57898e-05
-1.65064e-07
-8.42956e-05
9.11429e-06
-1.6619e-07
-8.48735e-05
1.94884e-06
-1.7853e-07
-8.31794e-05
-5.65534e-06
-2.0475e-07
-7.91096e-05
-1.34985e-05
-2.39998e-07
-7.26175e-05
-2.13851e-05
-2.82368e-07
-6.37329e-05
-2.90605e-05
-3.26076e-07
-5.25921e-05
-3.61999e-05
-3.60217e-07
-3.94854e-05
-4.23918e-05
-3.63729e-07
-2.49527e-05
-4.69736e-05
-3.03998e-07
-1.02031e-05
-4.77896e-05
-1.74047e-07
-3.39994e-05
3.21792e-07
-8.29533e-06
3.74052e-05
-9.44307e-07
-2.08093e-05
5.37658e-05
-6.42831e-07
-3.36017e-05
5.45311e-05
-5.27667e-07
-4.58333e-05
5.18102e-05
-4.27735e-07
-5.71466e-05
4.76936e-05
-3.60662e-07
-6.7276e-05
4.24953e-05
-3.11598e-07
-7.59864e-05
3.63075e-05
-2.73674e-07
-8.30594e-05
2.92015e-05
-2.46149e-07
-8.82885e-05
2.12488e-05
-2.2993e-07
-9.14761e-05
1.25281e-05
-2.26226e-07
-9.24343e-05
3.14307e-06
-2.35983e-07
-9.09754e-05
-6.8541e-06
-2.60168e-07
-8.6939e-05
-1.72389e-05
-2.9595e-07
-8.02172e-05
-2.77656e-05
-3.41416e-07
-7.0778e-05
-3.81093e-05
-3.90306e-07
-5.87098e-05
-4.78377e-05
-4.30467e-07
-4.42854e-05
-5.63791e-05
-4.37197e-07
-2.80938e-05
-6.27935e-05
-3.71628e-07
-1.15209e-05
-6.41379e-05
-2.24568e-07
-4.58588e-05
3.38501e-07
-9.0124e-06
4.75136e-05
-1.09598e-06
-2.26533e-05
6.81857e-05
-7.78997e-07
-3.65993e-05
6.91319e-05
-6.54802e-07
-4.99436e-05
6.56982e-05
-5.43767e-07
-6.23107e-05
6.05281e-05
-4.67305e-07
-7.34284e-05
5.40229e-05
-4.09981e-07
-8.30586e-05
4.63025e-05
-3.64837e-07
-9.09795e-05
3.74539e-05
-3.31416e-07
-9.6977e-05
2.75572e-05
-3.1098e-07
-0.000100837
1.6693e-05
-3.05135e-07
-0.000102341
4.96253e-06
-3.15297e-07
-0.000101257
-7.59464e-06
-3.43069e-07
-9.73498e-05
-2.07611e-05
-3.8523e-07
-9.04223e-05
-3.42524e-05
-4.40776e-07
-8.0343e-05
-4.76856e-05
-5.03001e-07
-6.71115e-05
-6.05113e-05
-5.57936e-07
-5.09521e-05
-7.19627e-05
-5.75704e-07
-3.25017e-05
-8.07362e-05
-5.07676e-07
-1.33934e-05
-8.29068e-05
-3.39455e-07
-5.95752e-05
3.23061e-07
-9.91956e-06
5.87204e-05
-1.28729e-06
-2.498e-05
8.41966e-05
-9.50534e-07
-4.03703e-05
8.53369e-05
-8.14677e-07
-5.50979e-05
8.11148e-05
-6.88974e-07
-6.8767e-05
7.4797e-05
-5.99884e-07
-8.1101e-05
6.68885e-05
-5.3156e-07
-9.18641e-05
5.75427e-05
-4.77149e-07
-0.000100838
4.68643e-05
-4.36645e-07
-0.000107807
3.49379e-05
-4.11794e-07
-0.000112544
2.18352e-05
-4.04775e-07
-0.000114801
7.63738e-06
-4.17772e-07
-0.000114297
-7.64525e-06
-4.53273e-07
-0.000110695
-2.38558e-05
-5.07697e-07
-0.000103673
-4.06921e-05
-5.81741e-07
-9.29461e-05
-5.77445e-05
-6.68456e-07
-7.83551e-05
-7.43508e-05
-7.51488e-07
-6.00136e-05
-8.95103e-05
-7.93876e-07
-3.85786e-05
-0.000101439
-7.31915e-07
-1.60162e-05
-0.000104929
-5.40305e-07
-7.58524e-05
2.60964e-07
-1.10377e-05
7.12939e-05
-1.53572e-06
-2.7843e-05
0.000102178
-1.17599e-06
-4.49925e-05
0.000103511
-1.02428e-06
-6.13874e-05
9.83873e-05
-8.77612e-07
-7.66108e-05
9.079e-05
-7.69601e-07
-9.03878e-05
8.13501e-05
-6.84521e-07
-0.000102494
7.02653e-05
-6.16054e-07
-0.000112727
5.76622e-05
-5.64949e-07
-0.000120882
4.36264e-05
-5.33639e-07
-0.000126731
2.82094e-05
-5.25113e-07
-0.000130001
1.14504e-05
-5.42795e-07
-0.000130366
-6.68956e-06
-5.9086e-07
-0.000127361
-2.61967e-05
-6.64805e-07
-0.000120498
-4.67858e-05
-7.69164e-07
-0.000109258
-6.80868e-05
-8.97545e-07
-9.32128e-05
-8.93651e-05
-1.03098e-06
-7.22445e-05
-0.000109356
-1.12295e-06
-4.69441e-05
-0.000125653
-1.08716e-06
-1.97116e-05
-0.000131287
-8.74708e-07
-9.56795e-05
1.1553e-07
-1.24004e-05
8.55582e-05
-1.86394e-06
-3.13222e-05
0.000122578
-1.4788e-06
-5.05767e-05
0.000124069
-1.3042e-06
-6.89363e-05
0.000117873
-1.12588e-06
-8.5965e-05
0.000108807
-9.87976e-07
-0.0001014
9.76613e-05
-8.76001e-07
-0.000115045
8.46954e-05
-7.84947e-07
-0.000126732
7.00651e-05
-7.16725e-07
-0.000136287
5.38565e-05
-6.74678e-07
-0.000143504
3.60892e-05
-6.6289e-07
-0.000148102
1.67348e-05
-6.86707e-07
-0.000149729
-4.30911e-06
-7.5343e-07
-0.000147768
-2.73021e-05
-8.55687e-07
-0.000141527
-5.20191e-05
-1.00726e-06
-0.000130153
-7.82568e-05
-1.20405e-06
-0.000112773
-0.000105319
-1.42571e-06
-8.88134e-05
-0.000131703
-1.61314e-06
-5.85917e-05
-0.000154226
-1.64835e-06
-2.50404e-05
-0.000163407
-1.43104e-06
-0.000120545
-1.74983e-07
-1.40639e-05
0.000101928
-2.30566e-06
-3.55414e-05
0.000145949
-1.89277e-06
-5.72881e-05
0.000147499
-1.68281e-06
-7.79216e-05
0.000139961
-1.4544e-06
-9.69956e-05
0.000129148
-1.26776e-06
-0.000114277
0.000116055
-1.11175e-06
-0.000129621
0.000101023
-9.83889e-07
-0.00014292
8.4252e-05
-8.87685e-07
-0.000154068
6.58321e-05
-8.2741e-07
-0.000162912
4.57409e-05
-8.0822e-07
-0.00016919
2.38518e-05
-8.38182e-07
-0.000172595
2.96005e-08
-9.34484e-07
-0.00017232
-2.65054e-05
-1.0717e-06
-0.000167468
-5.55762e-05
-1.29397e-06
-0.000156732
-8.73939e-05
-1.59942e-06
-0.000138554
-0.000121525
-1.97143e-06
-0.000111503
-0.000156415
-2.33867e-06
-7.51633e-05
-0.000188026
-2.54015e-06
-3.30446e-05
-0.000203161
-2.36495e-06
-0.000152816
-7.73289e-07
-1.6127e-05
0.000120969
-2.91461e-06
-4.07001e-05
0.000172992
-2.46991e-06
-6.53793e-05
0.000174379
-2.20123e-06
-8.86025e-05
0.000165074
-1.89014e-06
-0.000109934
0.000152102
-1.62232e-06
-0.000129197
0.000136712
-1.39371e-06
-0.000146333
0.000119365
-1.20608e-06
-0.000161336
0.00010032
-1.06474e-06
-0.000174209
7.96798e-05
-9.74276e-07
-0.000184911
5.73822e-05
-9.39725e-07
-0.000193286
3.31941e-05
-9.67563e-07
-0.000198968
6.77188e-06
-1.05969e-06
-0.000201297
-2.28935e-05
-1.28263e-06
-0.00019902
-5.6243e-05
-1.61034e-06
-0.000190306
-9.40279e-05
-2.08073e-06
-0.000172619
-0.000136513
-2.69927e-06
-0.000143056
-0.000182583
-3.39526e-06
-9.94641e-05
-0.000227657
-3.95976e-06
-4.57709e-05
-0.000252906
-3.94802e-06
-0.000196465
-2.12198e-06
-1.87707e-05
0.000143522
-3.78141e-06
-4.71282e-05
0.000204642
-3.29324e-06
-7.52451e-05
0.000205417
-2.92051e-06
-0.000101366
0.000193663
-2.46776e-06
-0.00012511
0.000177908
-2.06238e-06
-0.000146404
0.00015972
-1.71383e-06
-0.000165317
0.000139707
-1.43023e-06
-0.000181993
0.000118214
-1.21806e-06
-0.000196604
9.53712e-05
-1.08033e-06
-0.000209286
7.10838e-05
-1.02031e-06
-0.000220061
4.50124e-05
-1.04281e-06
-0.000228705
1.65677e-05
-1.15221e-06
-0.000234713
-1.54375e-05
-1.44748e-06
-0.000236689
-5.23632e-05
-1.90417e-06
-0.000232273
-9.58417e-05
-2.60252e-06
-0.000217671
-0.000147517
-3.59842e-06
-0.000187645
-0.000207745
-4.86391e-06
-0.00013644
-0.000272679
-6.18248e-06
-6.74566e-05
-0.000315244
-6.64537e-06
-0.000258859
-5.06317e-06
-2.23484e-05
0.00017094
-5.06984e-06
-5.53871e-05
0.000242187
-4.50606e-06
-8.75117e-05
0.000241476
-3.93501e-06
-0.000116798
0.000226178
-3.22902e-06
-0.000143009
0.000206705
-2.58609e-06
-0.000166238
0.000184989
-2.03943e-06
-0.000186744
0.000161818
-1.60443e-06
-0.000204879
0.000137634
-1.28527e-06
-0.000221043
0.000112613
-1.078e-06
-0.00023563
8.66505e-05
-9.7935e-07
-0.000248955
5.93309e-05
-9.93803e-07
-0.000261108
2.98656e-05
-1.1452e-06
-0.000272023
-3.04207e-06
-1.48016e-06
-0.000280421
-4.19162e-05
-2.04897e-06
-0.000283767
-8.94876e-05
-3.00861e-06
-0.000276957
-0.000149821
-4.50526e-06
-0.000251481
-0.000226563
-6.65777e-06
-0.000194996
-0.000319758
-9.40504e-06
-0.000107957
-0.000391101
-1.11826e-05
-0.000355104
-1.17114e-05
-2.761e-05
0.000205609
-7.05935e-06
-6.6518e-05
0.00028741
-6.31492e-06
-0.000103214
0.000283544
-5.37149e-06
-0.000135793
0.000262965
-4.20821e-06
-0.00016434
0.000238402
-3.15078e-06
-0.000189188
0.000212115
-2.27792e-06
-0.000210858
0.000185097
-1.6099e-06
-0.000229967
0.000157881
-1.13753e-06
-0.000247206
0.000130689
-8.36163e-07
-0.000263307
0.000103435
-6.83229e-07
-0.000279013
7.57069e-05
-6.69983e-07
-0.000295029
4.66832e-05
-8.01433e-07
-0.000311559
1.45576e-05
-1.06987e-06
-0.000328836
-2.2949e-05
-1.69021e-06
-0.000344779
-7.07039e-05
-2.84128e-06
-0.000353553
-0.000136269
-4.77791e-06
-0.00034329
-0.000228819
-8.00641e-06
-0.000290205
-0.000359798
-1.30451e-05
-0.00018489
-0.000478424
-1.79923e-05
-0.000513336
-2.66586e-05
-3.53223e-05
0.000251555
-1.06232e-05
-8.17239e-05
0.000343018
-9.20664e-06
-0.000123745
0.000333001
-7.43528e-06
-0.000159637
0.000304219
-5.36213e-06
-0.00019012
0.000272459
-3.5743e-06
-0.000215933
0.000240111
-2.18266e-06
-0.000237991
0.00020833
-1.17475e-06
-0.000257232
0.00017762
-4.98391e-07
-0.000274665
0.000148197
-7.46525e-08
-0.000291372
0.000120013
1.2945e-07
-0.000308547
9.26862e-05
1.95614e-07
-0.000327493
6.54607e-05
1.6787e-07
-0.000350282
3.73204e-05
2.60593e-08
-0.000378784
6.10156e-06
-5.48224e-07
-0.000412543
-3.56628e-05
-1.28212e-06
-0.000447892
-9.81703e-05
-2.74939e-06
-0.000473381
-0.000197141
-6.18915e-06
-0.000442994
-0.000376832
-1.33545e-05
-0.000328817
-0.000569845
-2.27547e-05
-0.000790386
-5.1767e-05
-5.44888e-05
0.000321845
-1.58014e-05
-0.000107384
0.000410285
-1.43709e-05
-0.000152944
0.000389351
-1.07906e-05
-0.000190344
0.000348697
-7.07792e-06
-0.000221469
0.000307382
-3.79776e-06
-0.000247111
0.000267115
-1.36115e-06
-0.000268347
0.000229325
2.40856e-07
-0.000286382
0.000194481
1.1743e-06
-0.000302616
0.000162778
1.65323e-06
-0.00031858
0.000134149
1.82767e-06
-0.000336205
0.000108462
1.84873e-06
-0.000357777
8.52231e-05
1.80953e-06
-0.000386209
6.38655e-05
1.88724e-06
-0.00042453
4.19197e-05
2.50314e-06
-0.000478602
1.44641e-05
3.94511e-06
-0.000550364
-3.26032e-05
6.19465e-06
-0.000635567
-0.000120485
8.54622e-06
-0.00066206
-0.000356685
6.347e-06
-0.000553093
-0.00067891
9.81576e-08
-0.00127586
-6.76172e-05
-5.80027e-05
0.000407466
-2.76189e-05
-0.000132707
0.000502973
-1.7983e-05
-0.000188717
0.000457842
-1.24814e-05
-0.000230849
0.000395945
-5.11515e-06
-0.000261569
0.000338306
-2.0419e-07
-0.000283574
0.000286169
2.95016e-06
-0.000299967
0.000241053
4.66484e-06
-0.000313016
0.000202121
5.40983e-06
-0.000324463
0.000168628
5.59703e-06
-0.000335696
0.000139849
5.53204e-06
-0.000348492
0.000115729
5.52937e-06
-0.000365096
9.59529e-05
5.87416e-06
-0.000390427
8.20449e-05
7.1518e-06
-0.000432054
7.33337e-05
1.02128e-05
-0.0005055
7.15283e-05
1.6382e-05
-0.000620364
5.25223e-05
2.9738e-05
-0.000794003
7.92149e-07
5.23627e-05
-0.000888779
-0.000338545
7.66357e-05
-0.000769636
-0.000887055
8.90024e-05
-0.00198655
-5.89475e-05
-0.000188569
0.000640067
-4.40317e-05
-0.000226718
0.000582189
-4.1068e-05
-0.000249891
0.000506027
-2.5012e-05
-0.00026859
0.000425605
-1.0961e-05
-0.000278062
0.000347451
3.26561e-07
-0.000282308
0.000283284
7.13151e-06
-0.000283904
0.000231956
1.06925e-05
-0.000283999
0.000190204
1.20114e-05
-0.000283885
0.000156476
1.20375e-05
-0.000284652
0.000129218
1.13986e-05
-0.000288732
0.000109004
1.08055e-05
-0.000297517
9.40555e-05
1.06821e-05
-0.000316907
8.89154e-05
1.25197e-05
-0.000351281
8.94004e-05
1.83072e-05
-0.000418405
0.00010474
3.39127e-05
-0.000525385
9.27875e-05
6.67144e-05
-0.000682234
2.51007e-05
0.000132541
-0.000816068
-0.000397705
0.000192994
-0.000695028
-0.00120832
0.000200226
-0.00258548
-9.60991e-05
-0.000387907
0.00112819
-0.000100214
-0.000310656
0.000542308
-3.73696e-05
-0.000201523
0.000406869
-9.97466e-06
-9.29006e-05
0.000299751
1.72314e-05
3.36058e-06
0.000220661
3.05291e-05
8.32311e-05
0.000167125
3.62887e-05
0.000148222
0.000130605
3.63602e-05
0.000200378
0.00010448
3.35689e-05
0.000241772
8.54029e-05
2.96781e-05
0.000275439
7.01797e-05
2.53714e-05
0.000302587
5.97978e-05
2.20589e-05
0.000326508
5.0643e-05
1.94916e-05
0.00034914
4.63286e-05
1.99545e-05
0.000370669
4.34226e-05
2.44488e-05
0.000398229
3.65331e-05
4.0647e-05
0.000392236
2.31905e-05
7.559e-05
0.000361275
-9.55689e-05
0.00015163
0.000129314
-0.000415197
0.000249453
-2.13632e-05
-0.00121791
0.000160263
-0.00235075
-0.00025609
0.00125181
-0.000123624
0.00190482
-0.000110697
0.00240248
-9.07959e-05
0.00276235
-6.01156e-05
0.00301424
-3.12291e-05
0.00319075
-9.38687e-06
0.00331584
5.51263e-06
0.00340593
1.43954e-05
0.00347195
1.93808e-05
0.0035231
1.90291e-05
0.00356293
1.99714e-05
0.00359862
1.49477e-05
0.00362776
1.71886e-05
0.00365749
1.36969e-05
0.00367612
1.7895e-05
0.00366306
3.62531e-05
0.00352776
3.97292e-05
0.00301855
9.40182e-05
0.00179689
3.7529e-06
-0.000553864
-6.34413e-06
6.41797e-06
-2.23556e-07
-1.64433e-05
1.02615e-05
-2.3632e-08
-2.68103e-05
1.05325e-05
4.5965e-08
-3.6654e-05
1.00008e-05
8.64671e-08
-4.56898e-05
9.17767e-06
9.65391e-08
-5.37002e-05
8.13563e-06
8.51137e-08
-6.04828e-05
6.89138e-06
5.78237e-08
-6.58488e-05
5.45837e-06
1.76659e-08
-6.96235e-05
3.85356e-06
-3.71281e-08
-7.16519e-05
2.0972e-06
-1.02912e-07
-7.18121e-05
2.1474e-07
-1.75947e-07
-7.00051e-05
-1.76658e-06
-2.55284e-07
-6.61835e-05
-3.79348e-06
-3.39691e-07
-6.03567e-05
-5.81123e-06
-4.23493e-07
-5.2604e-05
-7.75029e-06
-5.00158e-07
-4.30869e-05
-9.52838e-06
-5.60677e-07
-3.20656e-05
-1.10456e-05
-5.91437e-07
-1.99674e-05
-1.21289e-05
-5.73906e-07
-7.87232e-06
-1.21198e-05
-5.00502e-07
-7.80315e-06
-2.00061e-07
-1.05006e-05
1.69173e-05
-5.33862e-07
-2.58417e-05
2.57116e-05
-3.55379e-07
-4.145e-05
2.62503e-05
-2.63033e-07
-5.62233e-05
2.48757e-05
-1.88586e-07
-6.97226e-05
2.27683e-05
-1.44104e-07
-8.1614e-05
2.0109e-05
-1.20522e-07
-9.15975e-05
1.69505e-05
-1.1218e-07
-9.94025e-05
1.33357e-05
-1.17043e-07
-0.00010479
9.31214e-06
-1.34195e-07
-0.000107554
4.93267e-06
-1.63137e-07
-0.000107546
2.81518e-07
-2.02955e-07
-0.000104634
-4.60166e-06
-2.54412e-07
-9.87759e-05
-9.57087e-06
-3.11341e-07
-9.00055e-05
-1.44988e-05
-3.7027e-07
-7.84516e-05
-1.92211e-05
-4.2432e-07
-6.43584e-05
-2.35414e-05
-4.63408e-07
-4.81074e-05
-2.72211e-05
-4.71785e-07
-3.0314e-05
-2.9847e-05
-4.29146e-07
-1.2447e-05
-2.99034e-05
-3.31774e-07
-2.00839e-05
1.15964e-08
-1.15863e-05
2.85003e-05
-6.80492e-07
-2.84141e-05
4.26556e-05
-5.10706e-07
-4.54934e-05
4.3446e-05
-4.10058e-07
-6.16388e-05
4.11307e-05
-3.23291e-07
-7.63844e-05
3.76118e-05
-2.6419e-07
-8.93735e-05
3.31862e-05
-2.24747e-07
-0.000100287
2.79452e-05
-1.99695e-07
-0.000108838
2.19643e-05
-1.87573e-07
-0.000114773
1.53236e-05
-1.88173e-07
-0.000117876
8.11436e-06
-2.01608e-07
-0.000117969
4.5596e-07
-2.27662e-07
-0.000114903
-7.58209e-06
-2.64776e-07
-0.000108622
-1.57608e-05
-3.10603e-07
-9.9141e-05
-2.38863e-05
-3.60758e-07
-8.65734e-05
-3.16935e-05
-4.08016e-07
-7.11613e-05
-3.88601e-05
-4.4149e-07
-5.33036e-05
-4.4989e-05
-4.43865e-07
-3.36661e-05
-4.93937e-05
-3.92779e-07
-1.38663e-05
-4.9602e-05
-2.86077e-07
-3.37539e-05
7.33658e-08
-1.23146e-05
4.08237e-05
-8.22934e-07
-3.02339e-05
6.07147e-05
-6.62146e-07
-4.84111e-05
6.17622e-05
-5.53472e-07
-6.55988e-05
5.84478e-05
-4.53684e-07
-8.13133e-05
5.34422e-05
-3.81775e-07
-9.51881e-05
4.71646e-05
-3.28829e-07
-0.000106895
3.97473e-05
-2.89932e-07
-0.00011614
3.12978e-05
-2.64067e-07
-0.000122656
2.19266e-05
-2.51542e-07
-0.00012621
1.1755e-05
-2.52855e-07
-0.000126609
9.43994e-07
-2.67799e-07
-0.000123659
-1.0439e-05
-2.98229e-07
-0.000117258
-2.20633e-05
-3.38744e-07
-0.000107374
-3.36661e-05
-3.85816e-07
-9.40803e-05
-4.48814e-05
-4.32203e-07
-7.75844e-05
-5.52503e-05
-4.65932e-07
-5.82822e-05
-6.41874e-05
-4.67392e-07
-3.68916e-05
-7.06772e-05
-4.11056e-07
-1.52074e-05
-7.11658e-05
-2.94484e-07
-4.87356e-05
9.60669e-08
-1.324e-05
5.40942e-05
-9.74808e-07
-3.25433e-05
8.01955e-05
-8.20244e-07
-5.21213e-05
8.15148e-05
-7.02222e-07
-7.06417e-05
7.71296e-05
-5.89145e-07
-8.75991e-05
7.05431e-05
-5.0412e-07
-0.000102617
6.2309e-05
-4.38359e-07
-0.000115361
5.26047e-05
-3.87226e-07
-0.000125529
4.15699e-05
-3.50262e-07
-0.000132844
2.93409e-05
-3.28314e-07
-0.000137054
1.60605e-05
-3.22436e-07
-0.000137923
1.91082e-06
-3.33491e-07
-0.000135224
-1.30368e-05
-3.6114e-07
-0.00012878
-2.84011e-05
-4.0291e-07
-0.000118479
-4.38537e-05
-4.54862e-07
-0.000104313
-5.89282e-05
-5.08975e-07
-8.64288e-05
-7.30134e-05
-5.51568e-07
-6.51986e-05
-8.52955e-05
-5.59376e-07
-4.14044e-05
-9.43416e-05
-5.0137e-07
-1.71011e-05
-9.53205e-05
-3.73129e-07
-6.55708e-05
7.2573e-08
-1.44579e-05
6.86117e-05
-1.15561e-06
-3.55674e-05
0.000101532
-1.00571e-06
-5.69672e-05
0.000103135
-8.75599e-07
-7.72122e-05
9.75771e-05
-7.46206e-07
-9.57707e-05
8.92799e-05
-6.45585e-07
-0.000112257
7.89502e-05
-5.65183e-07
-0.000126334
6.68176e-05
-5.00772e-07
-0.000137698
5.3055e-05
-4.52504e-07
-0.000146065
3.78193e-05
-4.21878e-07
-0.000151162
2.12629e-05
-4.10601e-07
-0.000152716
3.56994e-06
-4.20139e-07
-0.000150439
-1.52058e-05
-4.51006e-07
-0.000144056
-3.46687e-05
-5.00654e-07
-0.00013334
-5.4445e-05
-5.65781e-07
-0.000118152
-7.39816e-05
-6.37683e-07
-9.85213e-05
-9.25019e-05
-7.00347e-07
-7.47554e-05
-0.000108912
-7.25124e-07
-4.76989e-05
-0.000121234
-6.72041e-07
-1.97702e-05
-0.000123057
-5.32076e-07
-8.5021e-05
3.08869e-09
-1.6006e-05
8.4715e-05
-1.38459e-06
-3.93975e-05
0.000125213
-1.23997e-06
-6.3083e-05
0.0001271
-1.09339e-06
-8.54747e-05
0.000120221
-9.41706e-07
-0.000106011
0.000110036
-8.1962e-07
-0.000124302
9.74286e-05
-7.1926e-07
-0.000140017
8.26926e-05
-6.37199e-07
-0.000152861
6.60374e-05
-5.74495e-07
-0.000162555
4.76347e-05
-5.33486e-07
-0.000168811
2.76309e-05
-5.16725e-07
-0.000171319
6.18614e-06
-5.26552e-07
-0.00016972
-1.66926e-05
-5.64791e-07
-0.000163611
-4.06564e-05
-6.29085e-07
-0.000152597
-6.53233e-05
-7.17497e-07
-0.000136335
-9.00914e-05
-8.20962e-07
-0.000114645
-0.000114022
-9.20624e-07
-8.76863e-05
-0.000135684
-9.8027e-07
-5.63282e-05
-0.000152378
-9.45711e-07
-2.34839e-05
-0.000155644
-7.9672e-07
-0.000108088
-1.55701e-07
-1.79288e-05
0.000102791
-1.683e-06
-4.4138e-05
0.000151792
-1.54633e-06
-7.06173e-05
0.000153931
-1.37627e-06
-9.56023e-05
0.000145521
-1.19227e-06
-0.000118502
0.000133204
-1.03843e-06
-0.00013893
0.000118082
-9.08455e-07
-0.000156582
0.000100529
-8.00428e-07
-0.000171191
8.07982e-05
-7.16762e-07
-0.0001825
5.90711e-05
-6.60908e-07
-0.000190227
3.54688e-05
-6.36505e-07
-0.00019403
1.0094e-05
-6.47244e-07
-0.000193484
-1.71334e-05
-6.96818e-07
-0.000188019
-4.60019e-05
-7.83612e-07
-0.000177015
-7.61879e-05
-9.08684e-07
-0.000159817
-0.000107124
-1.06378e-06
-0.000135886
-0.000137756
-1.22735e-06
-0.000105069
-0.000166272
-1.35319e-06
-6.81444e-05
-0.000189024
-1.36544e-06
-2.86765e-05
-0.000194768
-1.21931e-06
-0.000136219
-4.3031e-07
-2.02933e-05
0.0001233
-2.07927e-06
-4.99389e-05
0.000181914
-1.95524e-06
-7.97761e-05
0.000184214
-1.7501e-06
-0.000107826
0.000173962
-1.51729e-06
-0.000133471
0.000159176
-1.31461e-06
-0.000156353
0.000141227
-1.139e-06
-0.000176216
0.000120597
-9.91205e-07
-0.000192853
9.75949e-05
-8.75587e-07
-0.000206066
7.24063e-05
-7.96951e-07
-0.000215607
4.51068e-05
-7.60197e-07
-0.00022113
1.57006e-05
-7.70813e-07
-0.000222155
-1.60265e-05
-8.35169e-07
-0.000217927
-5.01318e-05
-9.53231e-07
-0.000207532
-8.64576e-05
-1.1324e-06
-0.000189864
-0.000124628
-1.368e-06
-0.000163791
-0.000163617
-1.63798e-06
-0.000128543
-0.000201249
-1.88449e-06
-8.45277e-05
-0.000232687
-2.00048e-06
-3.61247e-05
-0.000242712
-1.88973e-06
-0.000171608
-9.10145e-07
-2.32048e-05
0.000146814
-2.61517e-06
-5.70237e-05
0.00021635
-2.51014e-06
-9.08548e-05
0.000218612
-2.25009e-06
-0.000122462
0.000206056
-1.94104e-06
-0.00015122
0.000188328
-1.66141e-06
-0.000176826
0.000167136
-1.41432e-06
-0.000199117
0.000143109
-1.20491e-06
-0.000217995
0.000116626
-1.04015e-06
-0.000233369
8.78787e-05
-9.26083e-07
-0.000245077
5.68754e-05
-8.68518e-07
-0.000252817
2.34764e-05
-8.74773e-07
-0.000256103
-1.27193e-05
-9.55457e-07
-0.000253995
-5.21979e-05
-1.11338e-06
-0.000245239
-9.514e-05
-1.36775e-06
-0.000228113
-0.000141631
-1.72307e-06
-0.000200559
-0.000190978
-2.16385e-06
-0.000160649
-0.000240874
-2.62371e-06
-0.000107796
-0.000285124
-2.9556e-06
-4.72838e-05
-0.000302633
-2.95677e-06
-0.000217896
-1.76943e-06
-2.68352e-05
0.00017409
-3.35546e-06
-6.57344e-05
0.000256056
-3.27604e-06
-0.000104286
0.000257889
-2.926e-06
-0.000139956
0.00024233
-2.49434e-06
-0.000172146
0.000220987
-2.09143e-06
-0.000200664
0.000195991
-1.73164e-06
-0.000225497
0.000168163
-1.427e-06
-0.000246726
0.000137978
-1.18739e-06
-0.000264436
0.000105633
-1.01909e-06
-0.00027863
7.10571e-05
-9.27135e-07
-0.00028913
3.39266e-05
-9.18333e-07
-0.000295524
-6.38057e-06
-1.00408e-06
-0.000296777
-5.10126e-05
-1.21453e-06
-0.000291292
-0.000100669
-1.56583e-06
-0.000276592
-0.000156324
-2.08754e-06
-0.000249272
-0.000218208
-2.78893e-06
-0.000205382
-0.000284547
-3.61246e-06
-0.000142012
-0.000348078
-4.3754e-06
-6.50928e-05
-0.000378841
-4.65895e-06
-0.000281751
-3.36025e-06
-3.14754e-05
0.000206189
-4.40482e-06
-7.66072e-05
0.000302247
-4.35289e-06
-0.000120714
0.000302925
-3.84934e-06
-0.00016094
0.000283304
-3.21534e-06
-0.00019679
0.000257387
-2.61241e-06
-0.000228262
0.000227823
-2.0747e-06
-0.000255584
0.000195679
-1.62426e-06
-0.000279098
0.000161547
-1.27315e-06
-0.000299159
0.000125639
-1.02495e-06
-0.000316039
8.77966e-05
-8.80264e-07
-0.000329796
4.74819e-05
-8.411e-07
-0.00034029
3.86956e-06
-9.07914e-07
-0.000346509
-4.50681e-05
-1.17377e-06
-0.000346704
-0.000100751
-1.62747e-06
-0.000337633
-0.000165645
-2.35302e-06
-0.000314146
-0.000241875
-3.41915e-06
-0.000269068
-0.000329662
-4.82751e-06
-0.000194659
-0.000422259
-6.41026e-06
-9.60171e-05
-0.000476768
-7.361e-06
-0.000376456
-6.37462e-06
-3.76462e-05
0.000244705
-5.93978e-06
-9.0496e-05
0.000356492
-5.90112e-06
-0.000141105
0.000354724
-5.12489e-06
-0.000186319
0.000329437
-4.14801e-06
-0.000225891
0.00029759
-3.21667e-06
-0.000260132
0.000262424
-2.39848e-06
-0.000289628
0.000225299
-1.72819e-06
-0.000315089
0.000186939
-1.21626e-06
-0.000337252
0.000147581
-8.56342e-07
-0.000356786
0.000106987
-6.36587e-07
-0.000374189
6.44422e-05
-5.51176e-07
-0.000389587
1.87405e-05
-6.18179e-07
-0.000402715
-3.25635e-05
-8.56054e-07
-0.000411874
-9.22773e-05
-1.36351e-06
-0.000413478
-0.000164776
-2.2738e-06
-0.00040059
-0.000255503
-3.7643e-06
-0.000361576
-0.00036932
-6.01365e-06
-0.000279954
-0.00050425
-9.03475e-06
-0.000155715
-0.000600659
-1.153e-05
-0.000531444
-1.2439e-05
-4.63874e-05
0.000292285
-8.25229e-06
-0.000108921
0.000420866
-8.15442e-06
-0.00016698
0.000414304
-6.89336e-06
-0.000217402
0.00038098
-5.32985e-06
-0.000260463
0.000341356
-3.85577e-06
-0.00029694
0.00029922
-2.5974e-06
-0.000327918
0.00025627
-1.60278e-06
-0.000354597
0.00021335
-8.69987e-07
-0.000378205
0.000170721
-3.68164e-07
-0.00039993
0.000128089
-5.91284e-08
-0.000420886
8.46173e-05
1.1046e-07
-0.000441909
3.88294e-05
1.32902e-07
-0.000463571
-1.1972e-05
1.24463e-10
-0.000485623
-7.15039e-05
-4.11541e-07
-0.000505124
-0.000146799
-1.31823e-06
-0.000514361
-0.000247986
-3.05696e-06
-0.000497359
-0.000388108
-6.22099e-06
-0.000422379
-0.000580865
-1.14104e-05
-0.000273349
-0.000750481
-1.72004e-05
-0.000806521
-2.49302e-05
-5.81384e-05
0.000351842
-1.20413e-05
-0.000133133
0.000498203
-1.15488e-05
-0.000200122
0.000483214
-9.35667e-06
-0.000255932
0.000438166
-6.73758e-06
-0.000301876
0.00038809
-4.36536e-06
-0.000339536
0.00033713
-2.43261e-06
-0.000370777
0.000287317
-9.80509e-07
-0.000397406
0.000239457
2.39478e-08
-0.000421226
0.000193738
7.2823e-07
-0.000444009
0.000149829
1.17262e-06
-0.000467515
0.000106854
1.46443e-06
-0.000493668
6.3467e-05
1.68399e-06
-0.000525345
1.78872e-05
1.8434e-06
-0.000563741
-3.54338e-05
1.77804e-06
-0.000609397
-0.000103948
1.52265e-06
-0.000657276
-0.000203241
3.84865e-07
-0.000691525
-0.0003573
-2.74846e-06
-0.000652263
-0.000623543
-9.93843e-06
-0.000486827
-0.000918065
-2.06075e-05
-0.00130026
-4.48552e-05
-8.70273e-05
0.000440591
-1.75232e-05
-0.000173104
0.00058694
-1.70311e-05
-0.000245866
0.000558253
-1.30674e-05
-0.0003043
0.000498202
-8.6793e-06
-0.000351255
0.00043594
-4.69306e-06
-0.000388449
0.00037454
-1.57614e-06
-0.000418181
0.000316668
6.2125e-07
-0.00044284
0.000263258
2.03219e-06
-0.000464894
0.000214572
2.87299e-06
-0.000486862
0.000170257
3.36694e-06
-0.000511622
0.000129746
3.71671e-06
-0.000542211
9.17741e-05
4.09189e-06
-0.000582092
5.49263e-05
4.72877e-06
-0.000635785
1.47692e-05
5.99391e-06
-0.000711677
-3.21747e-05
8.06339e-06
-0.000810034
-0.000109218
1.05295e-05
-0.000922082
-0.000248981
1.22753e-05
-0.000947604
-0.000600476
8.80143e-06
-0.00075387
-0.00110897
-2.73189e-06
-0.0020628
-5.89454e-05
-8.50983e-05
0.000526057
-2.79868e-05
-0.0002069
0.00071292
-2.21615e-05
-0.000299881
0.00065467
-1.59177e-05
-0.00036709
0.000568256
-7.96039e-06
-0.000413981
0.000484545
-1.91768e-06
-0.000445636
0.000406939
2.20558e-06
-0.00046768
0.000338626
4.75137e-06
-0.000484376
0.000279201
6.16268e-06
-0.000498927
0.000227855
6.86475e-06
-0.000513777
0.000183407
7.2317e-06
-0.000531801
0.00014563
7.66948e-06
-0.000556195
0.000113479
8.56395e-06
-0.000593472
8.88049e-05
1.05496e-05
-0.000653264
7.03594e-05
1.44149e-05
-0.000750858
6.04264e-05
2.13749e-05
-0.0008909
2.68793e-05
3.3682e-05
-0.00107387
-6.58839e-05
5.2237e-05
-0.00112813
-0.000537478
6.78988e-05
-0.000839743
-0.00137154
6.31861e-05
-0.00290062
-6.08729e-05
-0.000230471
0.00075462
-4.21234e-05
-0.000320372
0.000802757
-4.10049e-05
-0.000385854
0.000722153
-2.70129e-05
-0.000431629
0.000616529
-1.34586e-05
-0.000451645
0.000506963
-2.07562e-06
-0.00045638
0.000413384
5.42098e-06
-0.000453061
0.000336175
9.82319e-06
-0.000446232
0.000272439
1.19447e-05
-0.000439475
0.000220481
1.26547e-05
-0.000435159
0.000177854
1.26361e-05
-0.000437202
0.000145811
1.26674e-05
-0.00044698
0.000120583
1.33565e-05
-0.000471419
0.000109618
1.6145e-05
-0.0005108
0.000105258
2.27899e-05
-0.000578152
0.00012384
3.7851e-05
-0.000658363
0.000107611
6.61937e-05
-0.000732274
2.39051e-05
0.000116663
-0.000749002
-0.000487923
0.000160168
-0.000431153
-0.00163283
0.000143662
-0.00332503
-0.000102838
-0.000626951
0.00136011
-7.87581e-05
-0.000578928
0.000758801
-4.14352e-05
-0.000457835
0.000610382
-1.92964e-05
-0.000301923
0.000472951
4.89764e-06
-0.000146307
0.000363609
1.82661e-05
-4.25278e-06
0.000281716
2.59033e-05
0.000118545
0.000221023
2.87149e-05
0.000221984
0.000174236
2.83331e-05
0.000306704
0.000138974
2.64654e-05
0.00037581
0.000110323
2.37966e-05
0.000431164
9.07988e-05
2.1716e-05
0.000476957
7.39737e-05
2.03076e-05
0.000520151
6.45313e-05
2.18474e-05
0.000562226
6.04493e-05
2.71824e-05
0.000634021
5.00667e-05
4.26259e-05
0.000703051
4.14575e-05
7.2714e-05
0.000826856
-7.91801e-05
0.00013091
0.000831493
-0.000446836
0.000203729
0.000627041
-0.00139648
0.000128373
-0.00273538
-0.0002187
0.00133193
-9.54424e-05
0.00207262
-9.25794e-05
0.0026729
-8.07008e-05
0.0031451
-5.93602e-05
0.00351386
-3.63821e-05
0.00380248
-1.62887e-05
0.00402968
-6.6754e-07
0.0042091
9.21576e-06
0.00435175
1.56971e-05
0.00446399
1.71161e-05
0.00455577
1.89913e-05
0.00462902
1.56664e-05
0.00469312
1.76277e-05
0.00475112
1.61403e-05
0.00480073
1.83585e-05
0.00484479
3.36475e-05
0.0047711
3.42424e-05
0.00435253
6.57528e-05
0.00293065
2.91426e-05
-0.000358595
-6.65804e-06
6.68321e-06
-2.48734e-07
-1.72889e-05
1.07911e-05
-1.83947e-07
-2.81951e-05
1.10863e-05
-1.34139e-07
-3.85355e-05
1.05205e-05
-9.36368e-08
-4.80118e-05
9.64409e-06
-7.11762e-08
-5.63991e-05
8.53638e-06