/*--------------------------------*- C++ -*----------------------------------*\
  =========                 |
  \\      /  F ield         | OpenFOAM: The Open Source CFD Toolbox
   \\    /   O peration     | Website:  https://openfoam.org
    \\  /    A nd           | Version:  10
     \\/     M anipulation  |
\*---------------------------------------------------------------------------*/
FoamFile
{
    format      ascii;
    class       volScalarField;
    location    "7.775";
    object      p;
}
// * * * * * * * * * * * * * * * * * * * * * * * * * * * * * * * * * * * * * //

dimensions      [0 2 -2 0 0 0 0];

internalField   nonuniform List<scalar> 
400
(
-1.22517e-08
-2.33024e-05
3.18035e-05
0.000137865
0.000302268
0.000527527
0.000817325
0.00117612
0.00160795
0.00211512
0.00269686
0.00334706
0.00405174
0.00478638
0.00551315
0.0061818
0.00673321
0.00711182
0.00731233
0.00725197
2.54061e-05
1.58582e-06
6.30681e-05
0.000170709
0.00033342
0.00055454
0.000838231
0.0011892
0.0016117
0.00210847
0.00267943
0.00331948
0.00401502
0.00474474
0.00547097
0.0061432
0.00669963
0.00708188
0.00728842
0.00721435
-3.94857e-05
-7.14896e-05
-1.18428e-05
9.14679e-05
0.000248141
0.000461781
0.000737165
0.00107998
0.00149591
0.00198968
0.00256361
0.00321549
0.00393644
0.00470527
0.00548363
0.00621485
0.00682442
0.00723713
0.00745149
0.00733288
-0.000174156
-0.000211933
-0.000155997
-5.97291e-05
8.74468e-05
0.000289572
0.000552345
0.000882911
0.00128911
0.00177881
0.00235849
0.00303063
0.00378995
0.00462229
0.00548759
0.00632109
0.00702757
0.00749683
0.00772565
0.00753133
-0.000386
-0.000428764
-0.000378937
-0.000292936
-0.000159303
2.65501e-05
0.000271433
0.000584283
0.000975668
0.00145752
0.00204217
0.00273967
0.0035537
0.0044717
0.00546259
0.00645093
0.00731184
0.00787682
0.00812619
0.0077952
-0.000673681
-0.000721534
-0.000680264
-0.000608155
-0.000493058
-0.000329923
-0.000110882
0.0001748
0.000540593
0.00100298
0.00158119
0.00229563
0.00316224
0.00418289
0.00533682
0.00654585
0.0076479
0.00837655
0.00865322
0.0080747
-0.0010331
-0.00108672
-0.00105658
-0.00100261
-0.000912247
-0.000780364
-0.00059851
-0.000354671
-3.29912e-05
0.000387248
0.000932459
0.00163494
0.00252843
0.00363524
0.00497309
0.00647231
0.00794089
0.00896494
0.00927271
0.00828281
-0.00145886
-0.00151922
-0.00150287
-0.00147169
-0.00141323
-0.0013229
-0.00119274
-0.00101085
-0.000760589
-0.00041889
4.5973e-05
0.000677147
0.00153078
0.00266926
0.00412282
0.0059249
0.00790073
0.0094829
0.00983491
0.00833593
-0.00194407
-0.00201223
-0.00201196
-0.00200804
-0.00198876
-0.00195112
-0.0018891
-0.0017932
-0.0016496
-0.00143794
-0.00112801
-0.000675631
-1.77653e-05
0.000930592
0.0022743
0.00413563
0.0066246
0.00922068
0.0097783
0.00822111
-0.00248038
-0.00255726
-0.00257426
-0.00260074
-0.00262659
-0.00265169
-0.00267399
-0.0026893
-0.00269127
-0.00267031
-0.00261216
-0.00249589
-0.00229437
-0.00197957
-0.00147777
-0.000469431
0.00187319
0.00581466
0.00768431
0.00793821
-0.00305842
-0.00314463
-0.00317789
-0.00323509
-0.00330865
-0.00340275
-0.00352143
-0.00366927
-0.00385319
-0.00408459
-0.00438376
-0.00479025
-0.00539781
-0.00643242
-0.0081293
-0.0100925
-0.00958708
-0.00442715
0.00114311
0.00592576
-0.003669
-0.00376418
-0.00380842
-0.00389182
-0.00400972
-0.00417201
-0.00439017
-0.00467985
-0.00506603
-0.00559081
-0.0063298
-0.00742574
-0.00916852
-0.012199
-0.0172813
-0.0240291
-0.0271347
-0.0212926
-0.0115205
-0.00160566
-0.0043064
-0.00441009
-0.00445586
-0.00455517
-0.0047057
-0.00492459
-0.00523142
-0.0056528
-0.00623256
-0.00704541
-0.0082262
-0.0100266
-0.0129485
-0.017943
-0.0261581
-0.036936
-0.043829
-0.0385925
-0.0274809
-0.0139157
-0.00496431
-0.00506684
-0.00508949
-0.0051828
-0.00534673
-0.00560285
-0.00597381
-0.0064942
-0.00721897
-0.00824088
-0.00972822
-0.0119703
-0.015585
-0.0214773
-0.0309462
-0.0426567
-0.0508481
-0.0461218
-0.0368243
-0.0228147
-0.0056713
-0.00578121
-0.00575972
-0.00582778
-0.00596949
-0.00621959
-0.00660505
-0.00716284
-0.00794926
-0.00905462
-0.0106511
-0.0129763
-0.0166935
-0.0222958
-0.0311562
-0.0410401
-0.0478362
-0.0433917
-0.0371846
-0.0233546
-0.00650963
-0.00642403
-0.00627748
-0.00623329
-0.00632655
-0.00656709
-0.00696429
-0.00753891
-0.00833546
-0.00942425
-0.0109618
-0.0130705
-0.0163267
-0.0209604
-0.0276522
-0.034426
-0.0389055
-0.0345132
-0.0308901
-0.0145909
-0.00698576
-0.00740083
-0.00708395
-0.00706973
-0.00703887
-0.00714873
-0.00741336
-0.00786571
-0.00854627
-0.00949887
-0.0108453
-0.012684
-0.0153514
-0.0188536
-0.0236593
-0.0278319
-0.0303381
-0.0253096
-0.0208088
0.00460366
-0.0103656
-0.00783291
-0.0071682
-0.00654864
-0.00644784
-0.00660434
-0.00696142
-0.00748204
-0.00818761
-0.00909075
-0.0103185
-0.0119228
-0.0141372
-0.0168467
-0.0202706
-0.0225556
-0.0231247
-0.0162968
-0.00545986
0.0376283
-0.00702398
-0.0100084
-0.008897
-0.00887633
-0.00839027
-0.00812882
-0.00805452
-0.00819688
-0.00859758
-0.0092482
-0.0102677
-0.0116325
-0.0137237
-0.0162229
-0.0196401
-0.0214786
-0.0210089
-0.00715291
0.0190508
0.0957448
-0.0322555
-0.00718342
-0.00561461
-0.00484074
-0.00462333
-0.00481914
-0.00531831
-0.00592404
-0.00672766
-0.00765283
-0.00894547
-0.0104625
-0.0124967
-0.0144218
-0.0159813
-0.0135048
-0.00379262
0.0301571
0.0971944
0.22816
)
;

boundaryField
{
    movingWall
    {
        type            zeroGradient;
    }
    fixedWalls
    {
        type            zeroGradient;
    }
    frontAndBack
    {
        type            empty;
    }
}


// ************************************************************************* //
