/*--------------------------------*- C++ -*----------------------------------*\
  =========                 |
  \\      /  F ield         | OpenFOAM: The Open Source CFD Toolbox
   \\    /   O peration     | Website:  https://openfoam.org
    \\  /    A nd           | Version:  10
     \\/     M anipulation  |
\*---------------------------------------------------------------------------*/
FoamFile
{
    format      ascii;
    class       volScalarField;
    location    "5";
    object      p;
}
// * * * * * * * * * * * * * * * * * * * * * * * * * * * * * * * * * * * * * //

dimensions      [0 2 -2 0 0 0 0];

internalField   nonuniform List<scalar> 
400
(
8.0214e-09
-2.00719e-05
-2.04667e-06
4.9653e-05
0.000134518
0.000253546
0.000407727
0.000597705
0.000823331
0.0010831
0.00137355
0.00168874
0.00201906
0.00235232
0.00267242
0.00296068
0.00319751
0.00336515
0.00344958
0.0034412
2.0504e-05
-3.20913e-07
1.91619e-05
7.01226e-05
0.000151962
0.000266596
0.000415527
0.000599755
0.000819487
0.00107359
0.00135894
0.00166978
0.00199822
0.00233105
0.00265235
0.00294317
0.00318347
0.00335545
0.00344404
0.00343408
-2.16237e-06
-2.71673e-05
-9.40966e-06
3.92089e-05
0.000117694
0.000228435
0.000373455
0.000554375
0.000772139
0.00102645
0.00131512
0.00163339
0.00197318
0.0023219
0.0026627
0.00297471
0.00323508
0.00342278
0.00351909
0.00350395
-6.56984e-05
-9.48455e-05
-8.00048e-05
-3.48639e-05
3.94273e-05
0.000145747
0.000286814
0.000465165
0.000682877
0.000940964
0.00123858
0.00157213
0.00193484
0.00231384
0.00269101
0.00304228
0.00333969
0.0035562
0.00366726
0.00364795
-0.00017007
-0.000203162
-0.000191932
-0.000151312
-8.23996e-05
1.83109e-05
0.00015444
0.000329735
0.000547821
0.00081158
0.0011222
0.00147787
0.0018738
0.00229754
0.00272952
0.00314114
0.00349665
0.00375915
0.00389474
0.00387185
-0.00031557
-0.000353181
-0.00034651
-0.000311787
-0.000250049
-0.000157057
-2.81192e-05
0.000142002
0.000358916
0.000628026
0.000953522
0.00133718
0.00177479
0.0022584
0.00276674
0.00326562
0.00370802
0.00404143
0.00421595
0.00418882
-0.000502259
-0.000545364
-0.00054451
-0.000517587
-0.000465673
-0.000383784
-0.000266056
-0.000105549
0.000105716
0.000376274
0.000714306
0.00112608
0.00161315
0.00217165
0.00278111
0.00340195
0.003972
0.00441429
0.00465112
0.00461895
-0.000730196
-0.000779948
-0.000786432
-0.000769737
-0.000731221
-0.000665259
-0.000564866
-0.000421331
-0.000224033
3.93275e-05
0.000382079
0.000816964
0.00135334
0.00199818
0.00273458
0.00352106
0.00427704
0.00488834
0.00522823
0.00519292
-0.000999454
-0.00105709
-0.00107254
-0.00106885
-0.0010481
-0.00100429
-0.000929593
-0.000813718
-0.00064342
-0.000402272
-7.07231e-05
0.000372287
0.000944539
0.00167769
0.00256107
0.00356383
0.00458783
0.00546517
0.00598302
0.00596024
-0.00131015
-0.00137684
-0.00140268
-0.00141475
-0.00141649
-0.00140213
-0.00136354
-0.00128945
-0.00116453
-0.00096857
-0.000675392
-0.00025232
0.000340211
0.00112144
0.00214669
0.00341164
0.00481209
0.00611348
0.0069527
0.00701022
-0.00166276
-0.00173939
-0.0017762
-0.00180598
-0.00183458
-0.00185728
-0.00186655
-0.00185125
-0.00179537
-0.0016766
-0.00146435
-0.00111733
-0.000583995
0.000189251
0.00129475
0.00282809
0.00471649
0.00669305
0.00815204
0.00852079
-0.00205885
-0.00214557
-0.00219209
-0.0022395
-0.00229767
-0.002364
-0.00243281
-0.00249465
-0.00253506
-0.00253285
-0.00245726
-0.00226395
-0.0018901
-0.00125554
-0.000310504
0.00135645
0.00369876
0.00664869
0.00934467
0.0107044
-0.00250278
-0.00259813
-0.00264939
-0.00271033
-0.00279725
-0.00291093
-0.00304867
-0.00320455
-0.00336858
-0.00352541
-0.00365176
-0.00371214
-0.00365375
-0.00339632
-0.00278811
-0.00179397
0.000353605
0.00419681
0.00898654
0.0129327
-0.0030049
-0.00310358
-0.00314746
-0.00321093
-0.00332005
-0.00347974
-0.00369087
-0.00395235
-0.00426157
-0.00461464
-0.0050063
-0.00542963
-0.00588249
-0.00640378
-0.00709978
-0.00788464
-0.00754176
-0.00402792
0.00302667
0.0118699
-0.00359011
-0.00368061
-0.00369175
-0.00373307
-0.003848
-0.00404479
-0.00432606
-0.00469506
-0.00515769
-0.00572552
-0.00642064
-0.00728391
-0.00840183
-0.010021
-0.0127141
-0.0168036
-0.0203002
-0.0192157
-0.0113382
0.00305658
-0.00429998
-0.00434281
-0.0042614
-0.00424669
-0.0043489
-0.00457046
-0.00491185
-0.00537831
-0.00598268
-0.00675101
-0.00773463
-0.00903082
-0.0108324
-0.0135946
-0.0183797
-0.0260635
-0.0350811
-0.0367487
-0.0291104
-0.00954757
-0.00519809
-0.00522562
-0.00497224
-0.00479707
-0.00482227
-0.005033
-0.00540995
-0.00594817
-0.0066593
-0.00757289
-0.00875847
-0.0103533
-0.0126375
-0.0160933
-0.0220956
-0.0313436
-0.0435705
-0.0469138
-0.0392757
-0.0103271
-0.00718051
-0.00630853
-0.00534297
-0.00501072
-0.00504292
-0.00529437
-0.00572753
-0.00632783
-0.00711181
-0.00809925
-0.00937261
-0.0110744
-0.0135998
-0.0169553
-0.0233166
-0.0323423
-0.0427411
-0.0437797
-0.0274984
0.0211013
-0.00646065
-0.00836068
-0.00686934
-0.00597663
-0.00567943
-0.00578143
-0.00614273
-0.00669328
-0.00746018
-0.00841468
-0.00966763
-0.0112943
-0.0137064
-0.0172667
-0.0229475
-0.029628
-0.0346747
-0.0250221
0.0140073
0.0927362
-0.0239598
-0.00903739
-0.00416834
-0.00338084
-0.00351238
-0.00382235
-0.00435273
-0.00506203
-0.00602905
-0.00715931
-0.00863556
-0.0105513
-0.0133274
-0.0171244
-0.0217325
-0.0241669
-0.0181405
0.0107496
0.0811463
0.193043
)
;

boundaryField
{
    movingWall
    {
        type            zeroGradient;
    }
    fixedWalls
    {
        type            zeroGradient;
    }
    frontAndBack
    {
        type            empty;
    }
}


// ************************************************************************* //
