/*--------------------------------*- C++ -*----------------------------------*\
  =========                 |
  \\      /  F ield         | OpenFOAM: The Open Source CFD Toolbox
   \\    /   O peration     | Website:  https://openfoam.org
    \\  /    A nd           | Version:  10
     \\/     M anipulation  |
\*---------------------------------------------------------------------------*/
FoamFile
{
    format      ascii;
    class       surfaceScalarField;
    location    "5";
    object      phi;
}
// * * * * * * * * * * * * * * * * * * * * * * * * * * * * * * * * * * * * * //

dimensions      [0 3 -1 0 0 0 0];

internalField   nonuniform List<scalar> 
760
(
-7.925e-06
7.92472e-06
-2.68564e-05
1.89314e-05
-4.90428e-05
2.21864e-05
-7.12888e-05
2.22461e-05
-9.26595e-05
2.13708e-05
-0.00011271
2.00506e-05
-0.000131004
1.82944e-05
-0.000147027
1.60222e-05
-0.000160167
1.31405e-05
-0.00016973
9.5624e-06
-0.000174956
5.22614e-06
-0.000175026
7.04455e-08
-0.000169223
-5.80349e-06
-0.000156939
-1.22833e-05
-0.000137893
-1.9046e-05
-0.00011228
-2.56133e-05
-8.10563e-05
-3.12235e-05
-4.66725e-05
-3.43839e-05
-1.52701e-05
-3.14024e-05
-1.52701e-05
-1.98637e-05
2.77884e-05
-5.64574e-05
5.55252e-05
-9.75656e-05
6.32947e-05
-0.000138405
6.30858e-05
-0.000177187
6.01529e-05
-0.00021293
5.57931e-05
-0.000244771
5.01352e-05
-0.000271806
4.30572e-05
-0.000293055
3.43902e-05
-0.000307465
2.39721e-05
-0.000313947
1.17082e-05
-0.000311456
-2.42069e-06
-0.000298909
-1.83505e-05
-0.000275648
-3.5544e-05
-0.00024143
-5.32633e-05
-0.000196756
-7.02879e-05
-0.000143317
-8.46626e-05
-8.50514e-05
-9.26492e-05
-3.08168e-05
-8.5637e-05
-4.60868e-05
-2.45599e-05
5.23484e-05
-6.81802e-05
9.91457e-05
-0.000116543
0.000111657
-0.000164322
0.000110865
-0.000209539
0.00010537
-0.000251083
9.73368e-05
-0.000287983
8.70354e-05
-0.000319241
7.43158e-05
-0.000343791
5.89398e-05
-0.000360488
4.06695e-05
-0.000368132
1.93524e-05
-0.000365468
-5.0846e-06
-0.000351298
-3.25212e-05
-0.000324707
-6.2135e-05
-0.000285255
-9.27155e-05
-0.000233332
-0.00012221
-0.00017075
-0.000147245
-0.000101988
-0.000161411
-3.73461e-05
-0.000150279
-8.34328e-05
-2.6377e-05
7.87254e-05
-7.33639e-05
0.000146133
-0.000125327
0.00016362
-0.000176609
0.000162147
-0.000225212
0.000153973
-0.000270048
0.000142173
-0.000310165
0.000127153
-0.000344574
0.000108724
-0.000372189
8.65547e-05
-0.0003918
6.02801e-05
-0.000402072
2.96251e-05
-0.000401554
-5.60306e-06
-0.000388593
-4.54819e-05
-0.000361827
-8.89007e-05
-0.000320266
-0.000134276
-0.000263827
-0.000178649
-0.000194167
-0.000216905
-0.000116321
-0.000239257
-4.24825e-05
-0.000224117
-0.000125915
-2.77378e-05
0.000106463
-7.75055e-05
0.0001959
-0.000132598
0.000218712
-0.000187054
0.000216603
-0.000238885
0.000205804
-0.000287071
0.000190359
-0.000330734
0.000170816
-0.00036894
0.000146931
-0.000400621
0.000118235
-0.000424508
8.41668e-05
-0.000439084
4.42016e-05
-0.000442683
-2.00392e-06
-0.000432906
-5.52594e-05
-0.000407676
-0.000114131
-0.000365034
-0.000176918
-0.000303961
-0.000239722
-0.000225649
-0.000295217
-0.000135841
-0.000329065
-4.95559e-05
-0.000310402
-0.000175471
-2.93393e-05
0.000135803
-8.2314e-05
0.000248875
-0.000141037
0.000277435
-0.000199212
0.000274778
-0.000254868
0.00026146
-0.000307092
0.000242582
-0.000355127
0.000218851
-0.000398153
0.000189957
-0.000435176
0.000155259
-0.000464914
0.000113904
-0.000485653
6.49412e-05
-0.000495601
7.94386e-06
-0.000491251
-5.96102e-05
-0.000469583
-0.000135798
-0.000427067
-0.000219434
-0.000360992
-0.000305797
-0.000271413
-0.000384796
-0.00016475
-0.000435729
-6.01965e-05
-0.000414956
-0.000235668
-3.13324e-05
0.000167135
-8.82017e-05
0.000305744
-0.000151279
0.000340513
-0.000213872
0.00033737
-0.000274042
0.000321631
-0.00033103
0.00029957
-0.000384267
0.000272089
-0.000433138
0.000238828
-0.000476833
0.000198953
-0.000514184
0.000151256
-0.000543469
9.42252e-05
-0.00056213
2.66055e-05
-0.000566657
-5.50831e-05
-0.000551954
-0.000150502
-0.000512242
-0.000259146
-0.000441891
-0.000376149
-0.000338404
-0.000488282
-0.000208254
-0.000565879
-7.65464e-05
-0.000546663
-0.000312214
-3.37598e-05
0.000200895
-9.52802e-05
0.000367265
-0.000163457
0.000408689
-0.000231117
0.00040503
-0.000296385
0.000386898
-0.000358712
0.000361897
-0.000417813
0.00033119
-0.000473397
0.000294412
-0.000524997
0.000250553
-0.000571751
0.00019801
-0.000612104
0.000134578
-0.000643281
5.77827e-05
-0.000661423
-3.69412e-05
-0.00065929
-0.000152635
-0.000627915
-0.000290521
-0.000556773
-0.000447291
-0.000438026
-0.00060703
-0.00027597
-0.000727935
-0.000103117
-0.000719517
-0.000415331
-3.66814e-05
0.000237576
-0.000103668
0.000434251
-0.000177667
0.000482689
-0.000250934
0.000478297
-0.000321686
0.000457651
-0.000389669
0.00042988
-0.00045499
0.000396511
-0.000517838
0.00035726
-0.000578311
0.000311025
-0.000636161
0.000255861
-0.000690385
0.000188802
-0.000738506
0.000105903
-0.000777047
1.60031e-06
-0.000796421
-0.000133262
-0.000783957
-0.000302984
-0.000721519
-0.000509729
-0.000590847
-0.000737702
-0.000387906
-0.000930876
-0.000150908
-0.000956515
-0.000566239
-4.02317e-05
0.000277808
-0.000113618
0.000507637
-0.000194152
0.000563223
-0.000273412
0.000557557
-0.000349764
0.000534003
-0.000423344
0.00050346
-0.000494778
0.000467944
-0.000564909
0.000427392
-0.000634661
0.000380777
-0.00070482
0.00032602
-0.000775639
0.000259621
-0.000845873
0.000176137
-0.000912645
6.83724e-05
-0.00096742
-7.84869e-05
-0.000992905
-0.000277499
-0.000961049
-0.000541584
-0.000834926
-0.000863824
-0.00058703
-0.00117877
-0.000247549
-0.001296
-0.000813788
-4.46862e-05
0.000322494
-0.000125641
0.000588592
-0.000213442
0.000651023
-0.000298887
0.000643002
-0.000380594
0.000615711
-0.000459211
0.000582077
-0.000536006
0.000544739
-0.000612634
0.000504019
-0.000691096
0.000459239
-0.00077368
0.000408604
-0.000862696
0.000348637
-0.000959758
0.000273199
-0.00106379
0.000172409
-0.00117298
3.06987e-05
-0.00126792
-0.000182564
-0.00131101
-0.000498485
-0.00123494
-0.000939897
-0.000955557
-0.00145816
-0.000452063
-0.00179949
-0.00126585
-5.05683e-05
0.000373062
-0.000140689
0.000678713
-0.000236543
0.000746877
-0.000328107
0.000734566
-0.000414453
0.000702057
-0.000496917
0.000664541
-0.000577508
0.00062533
-0.000658763
0.000585274
-0.000743896
0.000544372
-0.000837044
0.000501752
-0.000943485
0.000455078
-0.00106953
0.000399248
-0.00122127
0.000324143
-0.00140143
0.000210864
-0.00161241
2.84146e-05
-0.00180254
-0.000308362
-0.00185995
-0.000882478
-0.00158676
-0.00173135
-0.000837409
-0.00254884
-0.00210326
-5.88414e-05
0.000431904
-0.000160454
0.000780326
-0.000265225
0.000851648
-0.000362444
0.000831784
-0.000452095
0.000791709
-0.000536472
0.000748917
-0.000618374
0.000707232
-0.000701117
0.000668017
-0.000788971
0.000632226
-0.000887893
0.000600674
-0.00100655
0.000573737
-0.00115757
0.000550261
-0.00135837
0.000524952
-0.00163052
0.000483008
-0.00198249
0.000380384
-0.00239222
0.000101367
-0.00264924
-0.000625452
-0.0023997
-0.0019809
-0.00135409
-0.00359445
-0.00345735
-7.13097e-05
0.000503213
-0.000187892
0.000896908
-0.000302386
0.000966142
-0.000404096
0.000933494
-0.000494882
0.000882495
-0.000578427
0.000832463
-0.000658283
0.000787087
-0.000738165
0.000747898
-0.000822756
0.000716817
-0.000919
0.000696919
-0.00103816
0.0006929
-0.00119887
0.000710963
-0.00143057
0.000756653
-0.00177346
0.000825903
-0.00225937
0.000866292
-0.00282566
0.00066766
-0.00320606
-0.000245061
-0.00294384
-0.00224311
-0.0017214
-0.00481689
-0.00517875
-9.11337e-05
0.000594347
-0.000228235
0.00103401
-0.000353178
0.00109108
-0.000456595
0.00103691
-0.000544895
0.000970796
-0.000623945
0.000911512
-0.000697744
0.000860886
-0.000769591
0.000819746
-0.000843265
0.000790491
-0.000924623
0.000778277
-0.00102435
0.000792623
-0.0011624
0.000849015
-0.00137262
0.000966879
-0.00169879
0.00115207
-0.00216425
0.00133175
-0.00269722
0.00120063
-0.00298115
3.88689e-05
-0.00276684
-0.00245743
-0.00171899
-0.00586473
-0.00689775
-0.000125513
0.00071986
-0.000289948
0.00119845
-0.000421602
0.00122274
-0.000521945
0.00113725
-0.000603406
0.00105226
-0.000673916
0.000982023
-0.000737392
0.000924362
-0.000795612
0.000877965
-0.000849717
0.000844596
-0.000901331
0.000829891
-0.000954832
0.000846124
-0.00102074
0.000914928
-0.00112014
0.00106628
-0.00127554
0.00130747
-0.00149413
0.00155034
-0.00172351
0.00143
-0.0019561
0.000271459
-0.00189162
-0.0025219
-0.00137402
-0.00638234
-0.00827176
-0.000189368
0.000909227
-0.000405886
0.00141496
-0.000535492
0.00135234
-0.000612645
0.00121441
-0.000673901
0.00111351
-0.000727362
0.00103548
-0.00077227
0.00096927
-0.00080628
0.000911976
-0.000827221
0.000865536
-0.000830647
0.000833316
-0.000811489
0.000826966
-0.000761141
0.00086458
-0.00067707
0.000982205
-0.000543249
0.00117365
-0.000397436
0.00140453
-0.000307234
0.0013398
-0.000360328
0.000324553
-0.000575773
-0.00230646
-0.000648651
-0.00630946
-0.00892041
-0.000179635
0.00108886
-0.000454501
0.00168983
-0.000625496
0.00152334
-0.000718024
0.00130693
-0.000754295
0.00114978
-0.000754043
0.00103523
-0.000726298
0.000941526
-0.000674503
0.00086018
-0.00060318
0.000794213
-0.000506856
0.000736993
-0.00038033
0.000700441
-0.000198507
0.000682757
6.65176e-05
0.000717181
0.000421509
0.00081866
0.000866951
0.000959089
0.00129852
0.000908229
0.00146453
0.00015855
0.00107988
-0.00192181
0.000511256
-0.00574084
-0.00840916
-0.00155214
0.002641
-0.0014826
0.0016203
-0.00104573
0.00108647
-0.000627595
0.000888795
-0.000244407
0.000766597
0.000123999
0.000666825
0.00047829
0.000587234
0.000819359
0.000519112
0.00114352
0.000470053
0.00145771
0.000422805
0.0017608
0.000397344
0.00207009
0.000373471
0.0023954
0.000391875
0.00278926
0.000424798
0.00331391
0.000434438
0.00389161
0.000330529
0.00414599
-9.58346e-05
0.00385435
-0.00163017
0.00219925
-0.00408574
-0.0062099
0.002641
0.0042613
0.00534777
0.00623656
0.00700316
0.00766998
0.00825722
0.00877633
0.00924638
0.00966919
0.0100665
0.01044
0.0108319
0.0112567
0.0116911
0.0120216
0.0119258
0.0102956
0.0062099
)
;

boundaryField
{
    movingWall
    {
        type            calculated;
        value           uniform 0;
    }
    fixedWalls
    {
        type            calculated;
        value           uniform 0;
    }
    frontAndBack
    {
        type            empty;
        value           nonuniform List<scalar> 0();
    }
}


// ************************************************************************* //
