/*--------------------------------*- C++ -*----------------------------------*\
  =========                 |
  \\      /  F ield         | OpenFOAM: The Open Source CFD Toolbox
   \\    /   O peration     | Website:  https://openfoam.org
    \\  /    A nd           | Version:  10
     \\/     M anipulation  |
\*---------------------------------------------------------------------------*/
FoamFile
{
    format      ascii;
    class       volVectorField;
    location    "5";
    object      U;
}
// * * * * * * * * * * * * * * * * * * * * * * * * * * * * * * * * * * * * * //

dimensions      [0 1 -1 0 0 0 0];

internalField   nonuniform List<vector> 
400
(
(-0.000127701 0.000122194 0)
(-0.000780674 0.000363396 0)
(-0.00188199 0.000438889 0)
(-0.00301703 0.000443962 0)
(-0.00411333 0.000430913 0)
(-0.00515293 0.000410309 0)
(-0.00611582 0.000381568 0)
(-0.0069782 0.000342256 0)
(-0.0077119 0.00028973 0)
(-0.00828414 0.000221542 0)
(-0.00865834 0.000135825 0)
(-0.00879473 3.16137e-05 0)
(-0.00865421 -9.20172e-05 0)
(-0.00820301 -0.000230309 0)
(-0.00741818 -0.000376822 0)
(-0.00629674 -0.000520984 0)
(-0.00486427 -0.000646022 0)
(-0.00318555 -0.000718405 0)
(-0.00143857 -0.000652527 0)
(-0.000290436 -0.000294703 0)
(-0.000389588 0.000792605 0)
(-0.00177052 0.00170954 0)
(-0.00382796 0.00197591 0)
(-0.00592132 0.00197708 0)
(-0.0079239 0.00189389 0)
(-0.00979573 0.00176846 0)
(-0.011494 0.00160318 0)
(-0.0129745 0.00139247 0)
(-0.01419 0.00112947 0)
(-0.0150896 0.000807705 0)
(-0.0156194 0.000422337 0)
(-0.0157253 -2.80333e-05 0)
(-0.0153531 -0.000539194 0)
(-0.0144583 -0.00109643 0)
(-0.013017 -0.00167424 0)
(-0.0110347 -0.00223207 0)
(-0.0085603 -0.0027055 0)
(-0.00569977 -0.00297019 0)
(-0.00272994 -0.00273154 0)
(-0.000633959 -0.00141204 0)
(-0.000491353 0.0019712 0)
(-0.00216247 0.00380995 0)
(-0.0045952 0.00431253 0)
(-0.00705025 0.00428958 0)
(-0.00938898 0.00408297 0)
(-0.0115683 0.00377819 0)
(-0.0135396 0.00338505 0)
(-0.0152534 0.00289671 0)
(-0.0166581 0.0023031 0)
(-0.0176985 0.00159431 0)
(-0.0183157 0.000763243 0)
(-0.0184476 -0.000191012 0)
(-0.0180317 -0.00125826 0)
(-0.017014 -0.00241078 0)
(-0.0153588 -0.00359828 0)
(-0.0130635 -0.00473984 0)
(-0.0101761 -0.00570482 0)
(-0.00681194 -0.00624515 0)
(-0.00329059 -0.00579682 0)
(-0.000774553 -0.00318354 0)
(-0.000525798 0.00326265 0)
(-0.00232464 0.00610408 0)
(-0.00494366 0.00685084 0)
(-0.00757964 0.00679472 0)
(-0.0100907 0.006454 0)
(-0.0124371 0.00595898 0)
(-0.0145713 0.0053266 0)
(-0.0164446 0.00454849 0)
(-0.0180053 0.00361062 0)
(-0.0191961 0.0024983 0)
(-0.0199534 0.00120011 0)
(-0.020207 -0.000287273 0)
(-0.0198782 -0.00195608 0)
(-0.0188898 -0.00376603 0)
(-0.0171809 -0.00564402 0)
(-0.014722 -0.00746545 0)
(-0.0115432 -0.00902157 0)
(-0.00776281 -0.00991562 0)
(-0.00375257 -0.00926315 0)
(-0.000878844 -0.00518542 0)
(-0.000549605 0.00461427 0)
(-0.00244939 0.00851979 0)
(-0.00522707 0.00952319 0)
(-0.0080236 0.00943377 0)
(-0.0106945 0.00896005 0)
(-0.0132049 0.00827914 0)
(-0.0155113 0.00741483 0)
(-0.0175681 0.00635641 0)
(-0.0193258 0.00508417 0)
(-0.0207262 0.0035754 0)
(-0.0217001 0.00180941 0)
(-0.0221682 -0.000226198 0)
(-0.0220273 -0.00253419 0)
(-0.0211632 -0.00507037 0)
(-0.0194725 -0.00774479 0)
(-0.0168758 -0.0103863 0)
(-0.0133644 -0.0126887 0)
(-0.00905229 -0.0140619 0)
(-0.0043873 -0.0132206 0)
(-0.0010232 -0.00746361 0)
(-0.000578308 0.00603718 0)
(-0.0025949 0.0110807 0)
(-0.00555563 0.0123602 0)
(-0.00853934 0.0122414 0)
(-0.0113984 0.0116393 0)
(-0.0141047 0.0107815 0)
(-0.0166205 0.00969898 0)
(-0.0189067 0.00837808 0)
(-0.0209185 0.00679127 0)
(-0.0225997 0.00490369 0)
(-0.0238767 0.0026776 0)
(-0.0246624 7.91065e-05 0)
(-0.0248234 -0.00290302 0)
(-0.0241942 -0.0062527 0)
(-0.0226073 -0.00987285 0)
(-0.0198994 -0.0135463 0)
(-0.0159843 -0.0168435 0)
(-0.0109473 -0.0189083 0)
(-0.00533817 -0.0179206 0)
(-0.00124255 -0.0101707 0)
(-0.000614811 0.00754955 0)
(-0.00277453 0.0138187 0)
(-0.00595607 0.0153968 0)
(-0.00916322 0.0152529 0)
(-0.0122448 0.0145278 0)
(-0.0151818 0.0135048 0)
(-0.0179454 0.0122234 0)
(-0.0205066 0.0106668 0)
(-0.0228307 0.00879841 0)
(-0.0248694 0.00656694 0)
(-0.0265527 0.00390984 0)
(-0.027775 0.000760355 0)
(-0.0283855 -0.00292557 0)
(-0.0281669 -0.00718432 0)
(-0.0268435 -0.0119392 0)
(-0.0241197 -0.0169438 0)
(-0.0197624 -0.0216197 0)
(-0.0137655 -0.0247364 0)
(-0.00679223 -0.0237159 0)
(-0.00158285 -0.0135279 0)
(-0.000659925 0.00917195 0)
(-0.00299206 0.0167698 0)
(-0.006435 0.0186698 0)
(-0.00990122 0.018502 0)
(-0.0132358 0.0176577 0)
(-0.0164316 0.0164819 0)
(-0.0194731 0.0150257 0)
(-0.0223462 0.0132705 0)
(-0.0250337 0.01117 0)
(-0.0275042 0.00865413 0)
(-0.0297 0.00562863 0)
(-0.031516 0.00198157 0)
(-0.0327911 -0.002404 0)
(-0.0332468 -0.00764873 0)
(-0.0324757 -0.0137501 0)
(-0.029979 -0.020485 0)
(-0.0252547 -0.0271223 0)
(-0.0180621 -0.0319104 0)
(-0.0091262 -0.0311403 0)
(-0.00214565 -0.0179005 0)
(-0.000715193 0.0109273 0)
(-0.00325218 0.0199733 0)
(-0.00699863 0.0222159 0)
(-0.0107563 0.022019 0)
(-0.0143663 0.0210537 0)
(-0.0178376 0.019736 0)
(-0.0211723 0.0181322 0)
(-0.0243784 0.0162255 0)
(-0.027465 0.0139622 0)
(-0.0304311 0.0112531 0)
(-0.0332486 0.00796731 0)
(-0.0358359 0.00393004 0)
(-0.0380543 -0.00107792 0)
(-0.0395806 -0.00729663 0)
(-0.0398611 -0.014925 0)
(-0.0381194 -0.023874 0)
(-0.0333935 -0.0333278 0)
(-0.0249136 -0.0408624 0)
(-0.0132114 -0.0410428 0)
(-0.00318911 -0.0239808 0)
(-0.000784341 0.0128432 0)
(-0.0035652 0.0234723 0)
(-0.00766057 0.0260711 0)
(-0.0117379 0.0258274 0)
(-0.015635 0.0247292 0)
(-0.0193819 0.0232744 0)
(-0.023004 0.0215504 0)
(-0.0265386 0.0195476 0)
(-0.0300319 0.0172111 0)
(-0.0335298 0.0144387 0)
(-0.0370605 0.0110655 0)
(-0.0406098 0.00684467 0)
(-0.0440876 0.00143055 0)
(-0.0472227 -0.00558274 0)
(-0.049385 -0.0147625 0)
(-0.0494509 -0.0263853 0)
(-0.0457618 -0.0398016 0)
(-0.0364669 -0.0519281 0)
(-0.0211228 -0.0548282 0)
(-0.0053731 -0.0332738 0)
(-0.000875157 0.0149571 0)
(-0.00395192 0.0273189 0)
(-0.00844873 0.0302717 0)
(-0.0128696 0.0299424 0)
(-0.017051 0.0286819 0)
(-0.0210517 0.0270828 0)
(-0.0249266 0.0252603 0)
(-0.0287487 0.0232195 0)
(-0.0326109 0.0209155 0)
(-0.0366224 0.0182478 0)
(-0.0409015 0.0150355 0)
(-0.0455527 0.0109756 0)
(-0.050611 0.00559567 0)
(-0.0560341 -0.0017831 0)
(-0.0613273 -0.0120652 0)
(-0.0651245 -0.0264437 0)
(-0.0648517 -0.0450158 0)
(-0.0566096 -0.0646978 0)
(-0.0370693 -0.0745872 0)
(-0.010044 -0.0491062 0)
(-0.00100279 0.0173256 0)
(-0.00445144 0.0315813 0)
(-0.00941512 0.0348561 0)
(-0.0141978 0.0343683 0)
(-0.0186417 0.0328891 0)
(-0.0228466 0.0311187 0)
(-0.0269036 0.0292054 0)
(-0.0309252 0.0271772 0)
(-0.0350546 0.0250139 0)
(-0.0394748 0.022643 0)
(-0.0444212 0.0199079 0)
(-0.0501841 0.016508 0)
(-0.0570867 0.0119005 0)
(-0.0654098 0.00515499 0)
(-0.0753858 -0.00515239 0)
(-0.0859611 -0.0211458 0)
(-0.093307 -0.0454735 0)
(-0.0897394 -0.0770293 0)
(-0.0656344 -0.102523 0)
(-0.0182148 -0.0774698 0)
(-0.00119592 0.0200421 0)
(-0.00513426 0.0363556 0)
(-0.010651 0.0398647 0)
(-0.0158045 0.0390927 0)
(-0.0204623 0.037301 0)
(-0.024787 0.0353055 0)
(-0.0289145 0.0332861 0)
(-0.0329943 0.031298 0)
(-0.0372117 0.0293616 0)
(-0.0418156 0.0274675 0)
(-0.0471616 0.0255497 0)
(-0.0537666 0.0234194 0)
(-0.0623731 0.0206383 0)
(-0.0740241 0.0162936 0)
(-0.0898403 0.0084454 0)
(-0.110127 -0.00691362 0)
(-0.129401 -0.0370032 0)
(-0.132532 -0.0873364 0)
(-0.101876 -0.142459 0)
(-0.0261362 -0.126543 0)
(-0.0015097 0.0232738 0)
(-0.00612778 0.0418061 0)
(-0.0123101 0.045363 0)
(-0.0178216 0.0440876 0)
(-0.0226033 0.0418349 0)
(-0.026922 0.039528 0)
(-0.0309675 0.0373575 0)
(-0.034915 0.0353969 0)
(-0.0389649 0.033716 0)
(-0.0433922 0.0324044 0)
(-0.0486249 0.0315694 0)
(-0.0553617 0.0312962 0)
(-0.0647326 0.0315312 0)
(-0.078598 0.0317563 0)
(-0.0997568 0.0296952 0)
(-0.129274 0.0174156 0)
(-0.158046 -0.0213904 0)
(-0.162469 -0.102189 0)
(-0.125293 -0.203263 0)
(-0.0256704 -0.204696 0)
(-0.00204377 0.0272601 0)
(-0.00765347 0.0480106 0)
(-0.0146666 0.0512113 0)
(-0.0204734 0.0491779 0)
(-0.0252048 0.0463243 0)
(-0.0293316 0.0436207 0)
(-0.0331065 0.0412344 0)
(-0.0366992 0.0392369 0)
(-0.0402722 0.0377412 0)
(-0.0440422 0.0369522 0)
(-0.048379 0.0372181 0)
(-0.0539543 0.0390584 0)
(-0.0619333 0.0430725 0)
(-0.0744449 0.0492821 0)
(-0.0953853 0.0544598 0)
(-0.126527 0.0452473 0)
(-0.153465 -0.0058016 0)
(-0.151718 -0.126384 0)
(-0.121858 -0.279548 0)
(-0.0155879 -0.311244 0)
(-0.00304702 0.0325078 0)
(-0.0101303 0.0561421 0)
(-0.0180482 0.0584774 0)
(-0.0239148 0.054725 0)
(-0.0283497 0.0507659 0)
(-0.0320706 0.0474575 0)
(-0.0353738 0.0447345 0)
(-0.0383779 0.0425605 0)
(-0.0411383 0.0410373 0)
(-0.0436997 0.0404417 0)
(-0.0461643 0.0413416 0)
(-0.0487877 0.0446946 0)
(-0.0520913 0.0517715 0)
(-0.0572943 0.0627957 0)
(-0.0679354 0.0731092 0)
(-0.0868189 0.0647683 0)
(-0.104941 0.0055049 0)
(-0.0998335 -0.141162 0)
(-0.0979695 -0.335228 0)
(0.00154391 -0.416182 0)
(-0.00481697 0.0425086 0)
(-0.0151686 0.0633588 0)
(-0.0239414 0.0615158 0)
(-0.0290939 0.0573407 0)
(-0.0323959 0.0535044 0)
(-0.0352089 0.0501983 0)
(-0.0376486 0.0473454 0)
(-0.0396025 0.0449197 0)
(-0.0409544 0.0430684 0)
(-0.041531 0.0420721 0)
(-0.0410597 0.0425971 0)
(-0.0390992 0.0457483 0)
(-0.0351646 0.0532507 0)
(-0.0287331 0.0651001 0)
(-0.0223516 0.0775692 0)
(-0.0198741 0.072086 0)
(-0.025525 0.0154374 0)
(-0.0181677 -0.132526 0)
(-0.0560725 -0.350671 0)
(0.0301328 -0.474508 0)
(-0.00202086 0.0390836 0)
(-0.0139632 0.0820768 0)
(-0.0289306 0.0797908 0)
(-0.0350731 0.0686251 0)
(-0.0375491 0.0607585 0)
(-0.0382111 0.0551972 0)
(-0.0373596 0.0506659 0)
(-0.0352615 0.0467824 0)
(-0.0321332 0.0436024 0)
(-0.027867 0.0411093 0)
(-0.0222943 0.0398611 0)
(-0.0143865 0.0404663 0)
(-0.004031 0.0447941 0)
(0.0116901 0.0532248 0)
(0.0311537 0.0636422 0)
(0.0526317 0.0602881 0)
(0.0575746 0.0163632 0)
(0.0712973 -0.113997 0)
(0.013544 -0.3226 0)
(0.0799205 -0.45626 0)
(-0.0962074 0.0985824 0)
(-0.0733265 0.0777841 0)
(-0.0628523 0.0573899 0)
(-0.0417355 0.0496078 0)
(-0.0221498 0.0443174 0)
(-0.00302195 0.039832 0)
(0.0150502 0.0360032 0)
(0.0328096 0.0326229 0)
(0.0490263 0.0300414 0)
(0.0657815 0.0276216 0)
(0.0803524 0.0261176 0)
(0.0976721 0.0250664 0)
(0.111505 0.0261455 0)
(0.132619 0.0296053 0)
(0.143954 0.033542 0)
(0.179972 0.0312145 0)
(0.172268 -0.00333679 0)
(0.200822 -0.0868374 0)
(0.152307 -0.234166 0)
(0.171843 -0.34796 0)
(0.136358 0.109862 0)
(0.172433 0.0881887 0)
(0.233399 0.0664781 0)
(0.288536 0.0523806 0)
(0.331582 0.0432082 0)
(0.368757 0.0364113 0)
(0.398017 0.0312843 0)
(0.427994 0.0269827 0)
(0.449139 0.023817 0)
(0.476401 0.0207489 0)
(0.490658 0.0189168 0)
(0.518342 0.0165183 0)
(0.5266 0.0159053 0)
(0.556981 0.0145069 0)
(0.557738 0.0148303 0)
(0.587061 0.0121085 0)
(0.565279 0.00518918 0)
(0.564062 -0.0175452 0)
(0.461098 -0.0537885 0)
(0.34627 -0.104524 0)
)
;

boundaryField
{
    movingWall
    {
        type            fixedValue;
        value           uniform (1 0 0);
    }
    fixedWalls
    {
        type            noSlip;
    }
    frontAndBack
    {
        type            empty;
    }
}


// ************************************************************************* //
