/*--------------------------------*- C++ -*----------------------------------*\
  =========                 |
  \\      /  F ield         | OpenFOAM: The Open Source CFD Toolbox
   \\    /   O peration     | Website:  https://openfoam.org
    \\  /    A nd           | Version:  10
     \\/     M anipulation  |
\*---------------------------------------------------------------------------*/
FoamFile
{
    format      ascii;
    class       surfaceScalarField;
    location    "8.125";
    object      phi;
}
// * * * * * * * * * * * * * * * * * * * * * * * * * * * * * * * * * * * * * //

dimensions      [0 3 -1 0 0 0 0];

internalField   nonuniform List<scalar> 
760
(
-1.22433e-05
1.22432e-05
-3.94674e-05
2.72241e-05
-7.21916e-05
3.27242e-05
-0.000106616
3.44246e-05
-0.000141537
3.49206e-05
-0.000176587
3.50499e-05
-0.000211402
3.48158e-05
-0.000245314
3.39114e-05
-0.000277207
3.18936e-05
-0.000305427
2.82193e-05
-0.000327703
2.22762e-05
-0.000341149
1.34456e-05
-0.000342395
1.24696e-06
-0.000327899
-1.44965e-05
-0.000294884
-3.30146e-05
-0.000242548
-5.23366e-05
-0.000173897
-6.86506e-05
-9.77226e-05
-7.61746e-05
-3.01257e-05
-6.75969e-05
-3.01257e-05
-2.92069e-05
4.14501e-05
-8.24151e-05
8.04323e-05
-0.000144469
9.47784e-05
-0.000209084
9.90398e-05
-0.000273831
9.96673e-05
-0.000337555
9.87739e-05
-0.000399196
9.64564e-05
-0.000457319
9.20344e-05
-0.000509901
8.44754e-05
-0.000554187
7.25061e-05
-0.000586619
5.47083e-05
-0.000602785
2.96106e-05
-0.000598174
-3.36379e-06
-0.000567536
-4.51341e-05
-0.000507282
-9.32693e-05
-0.000416711
-0.000142907
-0.000300722
-0.000184639
-0.000173031
-0.000203866
-5.8313e-05
-0.000182315
-8.84387e-05
-3.69132e-05
7.83634e-05
-0.000102208
0.000145727
-0.00017753
0.0001701
-0.000255384
0.000176894
-0.000332911
0.000177194
-0.000408738
0.000174601
-0.000481641
0.000169359
-0.000550041
0.000160434
-0.000611762
0.000146196
-0.000663845
0.00012459
-0.000702418
9.32814e-05
-0.000722779
4.99711e-05
-0.000719048
-7.0946e-06
-0.000684952
-7.92303e-05
-0.000615228
-0.000162993
-0.000507689
-0.000250447
-0.000367057
-0.000325271
-0.000210061
-0.000360862
-6.90652e-05
-0.000323311
-0.000157504
-3.98633e-05
0.000118227
-0.000110426
0.000216291
-0.000191582
0.000251256
-0.000275326
0.000260638
-0.00035879
0.000260658
-0.000440743
0.000256554
-0.000520164
0.00024878
-0.00059572
0.000235991
-0.000665494
0.000215969
-0.000726717
0.000185813
-0.000775469
0.000142034
-0.000806401
8.09027e-05
-0.000813115
-3.80469e-07
-0.000786331
-0.000106014
-0.000717517
-0.000231807
-0.000600328
-0.000367636
-0.000436736
-0.000488863
-0.000246848
-0.00055075
-7.59667e-05
-0.000494192
-0.000233471
-4.07198e-05
0.000158946
-0.000113599
0.00028917
-0.000197611
0.000335267
-0.000284543
0.00034757
-0.000371707
0.000347822
-0.000458221
0.000343068
-0.000543519
0.000334078
-0.000626806
0.000319278
-0.00070674
0.000295904
-0.000781074
0.000260146
-0.000846157
0.000207118
-0.000896286
0.000131031
-0.000922906
2.62404e-05
-0.00091483
-0.000114091
-0.000856928
-0.000289709
-0.000735165
-0.000489398
-0.000543988
-0.00068004
-0.000303883
-0.000790855
-8.4891e-05
-0.000713184
-0.000318362
-4.07693e-05
0.000199716
-0.000114832
0.000363233
-0.000200633
0.000421069
-0.000289854
0.000436791
-0.00038007
0.000438038
-0.000470888
0.000433886
-0.000562398
0.000425588
-0.000654622
0.000411501
-0.000747169
0.000388452
-0.000838787
0.000351764
-0.00092665
0.000294981
-0.0010053
0.000209676
-0.00106505
8.59968e-05
-0.00109168
-8.74621e-05
-0.00106215
-0.000319236
-0.000949051
-0.0006025
-0.000728142
-0.000900949
-0.000408198
-0.0011108
-0.000103503
-0.00101788
-0.000421865
-4.0467e-05
0.000240183
-0.000115246
0.000438012
-0.00020237
0.000508192
-0.000293402
0.000527823
-0.000386214
0.00053085
-0.000481
0.000528673
-0.000578691
0.000523279
-0.000680425
0.000513236
-0.000787245
0.000495272
-0.000899621
0.00046414
-0.00101662
0.000411976
-0.00113447
0.000327529
-0.00124419
0.000195717
-0.00133259
9.37448e-07
-0.00136589
-0.00028593
-0.00129732
-0.000671074
-0.00105948
-0.00113879
-0.000617749
-0.00155253
-0.000156056
-0.00147957
-0.000577921
-3.99214e-05
0.000280104
-0.000115121
0.000513211
-0.000203148
0.000596219
-0.000295371
0.000620046
-0.000389942
0.00062542
-0.000487684
0.000626415
-0.000590504
0.000626099
-0.000700959
0.000623691
-0.000822076
0.000616389
-0.000957056
0.00059912
-0.00110863
0.00056355
-0.00127775
0.000496651
-0.00146144
0.000379402
-0.00164632
0.000185816
-0.00180674
-0.000125504
-0.00185442
-0.000623401
-0.00163474
-0.00135846
-0.00102744
-0.00215984
-0.000303257
-0.00220375
-0.000881178
-3.91881e-05
0.000319292
-0.000114562
0.000588585
-0.00020297
0.000684628
-0.000295439
0.000712514
-0.000390332
0.000720313
-0.000489076
0.000725159
-0.000594578
0.000731601
-0.000710945
0.000740058
-0.000843623
0.000749066
-0.000999562
0.000755059
-0.0011872
0.000751184
-0.00141624
0.000725691
-0.00169699
0.000660159
-0.0020333
0.000522124
-0.00239433
0.000235528
-0.00263927
-0.000378463
-0.00246757
-0.00153016
-0.00169208
-0.00293533
-0.000642432
-0.0032534
-0.00152361
-3.84329e-05
0.000357725
-0.000113879
0.000664031
-0.000202078
0.000772827
-0.000293521
0.000803957
-0.000386662
0.000813454
-0.000483413
0.000821911
-0.000587543
0.000835731
-0.000704584
0.0008571
-0.000842391
0.000886873
-0.00101211
0.000924773
-0.00122969
0.000968765
-0.001518
0.00101401
-0.00190728
0.00104943
-0.00242059
0.00103544
-0.00300317
0.00081811
-0.00341775
3.61176e-05
-0.00330158
-0.00164634
-0.00249898
-0.00373793
-0.00122907
-0.0045233
-0.00275268
-3.80459e-05
0.000395771
-0.00011383
0.000739815
-0.000201314
0.000860312
-0.000290255
0.000892897
-0.00037903
0.000902229
-0.000469836
0.000912717
-0.000566938
0.000932833
-0.000676729
0.000966891
-0.000808716
0.00101886
-0.000977348
0.00109341
-0.00120513
0.00119655
-0.00152644
0.00133532
-0.00198437
0.00150736
-0.00259727
0.00164833
-0.00326557
0.00148641
-0.00370783
0.000478374
-0.00365775
-0.00169642
-0.0030699
-0.00432578
-0.00183199
-0.00576121
-0.00458467
-3.88348e-05
0.000434606
-0.000115963
0.000816943
-0.00020248
0.000946829
-0.000287335
0.000977753
-0.000368823
0.000983716
-0.000449174
0.000993068
-0.000532578
0.00101624
-0.000625223
0.00105954
-0.000736436
0.00113007
-0.000880669
0.00123764
-0.00108045
0.00139632
-0.00136821
0.00162308
-0.00177754
0.00191669
-0.00229747
0.00216827
-0.0028187
0.00200764
-0.00314408
0.000803754
-0.00318428
-0.00165621
-0.00290076
-0.00460929
-0.00191692
-0.00674505
-0.0065016
-4.18919e-05
0.000476498
-0.000122384
0.000897435
-0.000208341
0.00103279
-0.000287936
0.00105735
-0.000359304
0.00105508
-0.000424531
0.00105829
-0.000487217
0.00107892
-0.000551852
0.00112417
-0.000624829
0.00120305
-0.000715511
0.00132832
-0.000837315
0.00151813
-0.00100499
0.00179076
-0.0012286
0.00214029
-0.00148178
0.00242145
-0.0017179
0.00224376
-0.00186944
0.000955296
-0.00198638
-0.00153928
-0.00203942
-0.00455625
-0.00152235
-0.00726212
-0.00802395
-5.08988e-05
0.000527397
-0.000138898
0.000985434
-0.000224102
0.00111799
-0.000295764
0.00112901
-0.000353852
0.00111317
-0.000400529
0.00110497
-0.000437627
0.00111602
-0.000467129
0.00115367
-0.000490945
0.00122687
-0.000510633
0.00134801
-0.000526993
0.00153449
-0.000533802
0.00179757
-0.00052263
0.00212912
-0.000476404
0.00237522
-0.000429429
0.00219678
-0.000442636
0.000968504
-0.00062707
-0.00135484
-0.00103551
-0.00414781
-0.00101965
-0.00727798
-0.00904359
-6.24378e-05
0.000589834
-0.000161792
0.00108479
-0.000250928
0.00120713
-0.000319482
0.00119756
-0.000365156
0.00115885
-0.000390993
0.00113081
-0.00039896
0.00112399
-0.000389197
0.00114391
-0.000359627
0.0011973
-0.000304746
0.00129313
-0.000214727
0.00144447
-7.03763e-05
0.00165322
0.000147839
0.00191091
0.000430387
0.00209267
0.000701969
0.0019252
0.000758697
0.000911776
0.00045989
-0.00105604
-0.000258139
-0.00342978
-0.000616086
-0.00692003
-0.00965968
-0.000130062
0.000719897
-0.000243903
0.00119863
-0.000317751
0.00128097
-0.000359888
0.0012397
-0.000380285
0.00117924
-0.000382318
0.00113284
-0.000364378
0.00110605
-0.000322031
0.00110156
-0.000248708
0.00112397
-0.000134167
0.00117859
3.70309e-05
0.00127327
0.000279966
0.00141028
0.000616372
0.0015745
0.00103126
0.00167778
0.00141346
0.001543
0.00152183
0.000803402
0.00116433
-0.000698531
0.000303706
-0.00256916
-0.000271568
-0.00634476
-0.00993124
-8.40627e-05
0.000803959
-0.000263178
0.00137774
-0.000377093
0.00139489
-0.000433359
0.00129597
-0.000448131
0.00119402
-0.000431599
0.00111631
-0.000386258
0.00106071
-0.00030937
0.00102467
-0.000194862
0.00100947
-3.09164e-05
0.00101464
0.000194815
0.00104754
0.00049972
0.00110538
0.000891995
0.00118223
0.00135202
0.00121776
0.00177143
0.00112359
0.00190348
0.000671354
0.00153415
-0.000329204
0.000711424
-0.00174644
0.000115589
-0.00574892
-0.00981566
-0.000379701
0.00118366
-0.000438971
0.00143701
-0.000489782
0.0014457
-0.00052951
0.0013357
-0.000522041
0.00118655
-0.000473352
0.00106762
-0.000387178
0.000974533
-0.000261764
0.00089926
-9.75052e-05
0.000845208
0.00011323
0.000803905
0.000375561
0.00078521
0.000701973
0.000778966
0.00108975
0.00079445
0.00151033
0.000797183
0.00190397
0.000729946
0.00208124
0.000494086
0.00197403
-0.000221993
0.00155907
-0.00133148
0.000867456
-0.00505731
-0.0089482
-0.00136258
0.00254624
-0.00132604
0.00140047
-0.00106805
0.00118771
-0.000697983
0.000965633
-0.000307392
0.000795955
8.75083e-05
0.00067272
0.000475466
0.000586575
0.000855671
0.000519054
0.00123039
0.000470494
0.00160455
0.00042974
0.00198622
0.000403546
0.00238236
0.000382824
0.0028096
0.000367209
0.0032596
0.000347184
0.00371627
0.000273275
0.00406892
0.000141434
0.00416213
-0.000315205
0.00398998
-0.00115932
0.00252674
-0.00359407
-0.00642146
0.00254624
0.00394671
0.00513442
0.00610005
0.00689601
0.00756873
0.0081553
0.00867436
0.00914485
0.00957459
0.00997814
0.010361
0.0107282
0.0110754
0.0113486
0.0114901
0.0111749
0.0100155
0.00642146
)
;

boundaryField
{
    movingWall
    {
        type            calculated;
        value           uniform 0;
    }
    fixedWalls
    {
        type            calculated;
        value           uniform 0;
    }
    frontAndBack
    {
        type            empty;
        value           nonuniform List<scalar> 0();
    }
}


// ************************************************************************* //
