/*--------------------------------*- C++ -*----------------------------------*\
  =========                 |
  \\      /  F ield         | OpenFOAM: The Open Source CFD Toolbox
   \\    /   O peration     | Website:  https://openfoam.org
    \\  /    A nd           | Version:  10
     \\/     M anipulation  |
\*---------------------------------------------------------------------------*/
FoamFile
{
    format      ascii;
    class       volScalarField;
    location    "5";
    object      p;
}
// * * * * * * * * * * * * * * * * * * * * * * * * * * * * * * * * * * * * * //

dimensions      [0 2 -2 0 0 0 0];

internalField   nonuniform List<scalar> 
496
(
28.768
28.6728
25.4515
19.3882
29.5217
29.9288
25.9292
19.3642
34.6012
32.265
24.3077
13.5972
41.9731
39.0848
35.9555
20.6064
10.4351
1.22256
10.1783
1.29544
-1.68351
-6.58529
-28.4934
-55.2508
-6.01839
-10.8283
-13.5551
-15.1492
-6.69695
-12.3007
-15.8507
-17.9886
-1.37783
-2.91525
-10.7134
-16.7054
-24.0021
-7.23438
-13.6443
-19.3429
-15.9368
-16.0777
-15.6553
-15.1252
-14.4081
-13.8149
-12.8338
-11.521
-10.021
-8.57906
-7.5905
-7.02974
-7.05198
-7.37499
-8.15986
-8.4303
-8.67199
-9.38303
-10.1704
-10.2014
-9.16766
-8.21472
-7.55496
-7.10221
-6.23215
-5.07747
-4.17594
-3.77824
-3.9304
-3.82725
-3.40747
-2.5957
-1.86936
-1.39927
-0.90521
-0.506638
-0.0345044
0.196758
0.145688
0.115269
-18.7534
-17.9784
-16.7528
-15.7354
-15.0965
-14.3984
-13.1661
-11.5565
-9.65701
-8.09577
-7.04209
-6.52903
-6.46545
-7.03633
-8.02411
-8.68189
-9.09763
-9.43171
-10.034
-10.0663
-9.4566
-8.72271
-8.02671
-7.27942
-6.00277
-4.77538
-3.87831
-3.6179
-3.86477
-3.94042
-3.66157
-2.8309
-2.00135
-1.20418
-0.572155
-0.157753
0.268592
0.32462
0.407717
0.188101
-18.1788
-17.5791
-16.7748
-16.5468
-16.6604
-15.8899
-14.1405
-11.7912
-9.2828
-7.3881
-6.44723
-5.63967
-5.66506
-7.0275
-8.62601
-9.86541
-10.3828
-10.8085
-11.1179
-10.5617
-9.7901
-8.80511
-8.06278
-6.99287
-6.07229
-4.71767
-3.97802
-4.3609
-4.80588
-4.74721
-4.13909
-3.08766
-2.11482
-0.974363
-0.269726
0.173034
0.43856
0.296524
-0.0214901
-0.294934
-14.6075
-15.0861
-16.0556
-16.4057
-17.9498
-17.4368
-15.7738
-12.538
-9.118
-5.96513
-3.23364
-2.73235
-3.67466
-5.82524
-7.59645
-9.49122
-11.0573
-12.026
-12.4198
-12.0393
-11.815
-10.9855
-10.1351
-7.86633
-4.49302
-2.1651
-1.16127
-2.64275
-4.21862
-5.28038
-4.75708
-3.87685
-2.11589
-0.237596
0.392791
1.73252
1.00232
0.57254
0.126733
-0.728501
46.2369
47.972
61.9244
74.6825
45.6887
47.132
61.495
74.2049
-31.328
-33.1491
-29.1219
-21.1086
-30.8621
-31.5641
-28.9198
-32.1288
-18.7731
-19.3716
-18.5928
-19.226
-17.7014
-16.3205
-16.1368
-13.2175
-10.6439
-8.58492
-6.49806
-6.10326
-5.75222
-6.08591
-6.97337
-8.09919
-9.67179
-11.0061
-11.3521
-11.3225
-10.8266
-9.97529
-8.78593
-7.57339
-6.00998
-4.21492
-3.84534
-4.13788
-4.19853
-4.43833
-4.31942
-3.56989
-2.55713
-2.05279
-1.70977
-1.22024
-0.845641
-0.587683
-0.30764
-0.210937
-12.4455
-19.4497
-17.9977
-14.4924
-16.1555
-14.7278
-13.5666
-12.861
-13.0472
-13.3059
-11.8702
-9.8075
-7.9886
-6.56623
-5.81768
-5.43289
-5.80382
-6.94983
-7.87575
-8.44575
-8.65178
-8.67402
-8.79644
-9.06575
-8.84163
-7.90808
-6.63159
-5.31335
-4.22866
-2.94066
-2.78533
-2.77436
-2.57878
-3.29744
-3.96988
-3.57724
-2.82585
-2.16116
-0.822891
0.333266
40.927
37.5991
34.0214
17.8699
33.0191
30.6378
21.9166
11.1981
28.0203
28.5097
24.3537
17.785
27.1875
27.4531
24.1672
17.6035
-33.3957
-59.6682
-4.40288
-9.15703
8.64063
-0.294192
8.734
-0.529625
-28.6954
-15.9278
-10.4297
-6.89032
-2.93483
-4.14877
-9.25437
-13.6443
-7.96407
-13.5127
-17.1521
-18.0917
-7.59501
-12.1395
-14.135
-14.6719
-10.9364
-14.6881
-16.4213
-15.282
-12.2387
-13.0131
-13.6885
-13.8218
-14.2261
-14.3663
-13.7776
-11.1773
-8.70211
-5.26771
-2.56301
-1.35681
-2.28949
-3.87249
-4.86825
-6.16757
-7.05792
-8.54012
-9.5409
-10.4853
-11.0216
-9.8069
-8.27532
-5.90066
-3.93784
-2.08889
-1.12223
-1.81657
-2.49736
-3.53492
-3.85504
-4.42466
-3.52837
-2.51887
-1.33387
0.613192
-16.3004
-18.3518
-17.7767
-16.2669
-14.1528
-12.9909
-13.301
-13.5132
-13.4763
-13.0211
-12.2266
-10.248
-8.32061
-6.71958
-5.40195
-4.57033
-4.18317
-4.83988
-5.30673
-6.02187
-6.71846
-7.7327
-8.83133
-9.57541
-9.58929
-8.47114
-6.96898
-5.29135
-4.18562
-3.52743
-3.19993
-3.11611
-3.26151
-3.49448
-3.5042
-3.36348
-2.69338
-1.76385
-1.01103
-0.279791
-16.7644
-15.5371
-15.0838
-14.7455
-13.8466
-12.9108
-12.6541
-12.6718
-12.3862
-11.803
-11.1713
-10.3078
-8.88528
-7.43802
-5.96764
-4.77269
-4.59525
-4.97549
-5.68055
-6.16883
-6.69439
-7.23644
-7.97193
-8.38264
-8.14939
-7.47873
-6.51034
-5.82908
-5.09632
-4.52738
-3.74561
-3.08901
-2.69378
-2.54224
-2.45401
-2.22577
-2.19576
-1.99338
-1.57486
-0.755213
-14.3617
-13.9209
-14.0039
-14.275
-14.2827
-13.6152
-12.9084
-12.462
-12.0713
-11.6205
-10.971
-10.2032
-8.88081
-7.48834
-6.27935
-5.55403
-5.16136
-5.31821
-5.86805
-6.19158
-6.51813
-6.87707
-7.50768
-7.86008
-7.6515
-7.05279
-6.24834
-5.64859
-5.02032
-4.51672
-3.82685
-3.25657
-2.88038
-2.56867
-2.55171
-2.37829
-2.30012
-1.97374
-1.33606
-0.544818
)
;

boundaryField
{
    inlet
    {
        type            zeroGradient;
    }
    outlet
    {
        type            fixedValue;
        value           uniform 0;
    }
    obstacle
    {
        type            zeroGradient;
    }
    upperWall
    {
        type            zeroGradient;
    }
    lowerWall
    {
        type            zeroGradient;
    }
    frontAndBack
    {
        type            empty;
    }
}


// ************************************************************************* //
