/*--------------------------------*- C++ -*----------------------------------*\
  =========                 |
  \\      /  F ield         | OpenFOAM: The Open Source CFD Toolbox
   \\    /   O peration     | Website:  https://openfoam.org
    \\  /    A nd           | Version:  10
     \\/     M anipulation  |
\*---------------------------------------------------------------------------*/
FoamFile
{
    format      ascii;
    class       surfaceScalarField;
    location    "5";
    object      phi;
}
// * * * * * * * * * * * * * * * * * * * * * * * * * * * * * * * * * * * * * //

dimensions      [0 3 -1 0 0 0 0];

internalField   nonuniform List<scalar> 
928
(
0.0966769
0.00332308
0.10304
-0.00636281
0.106814
-0.00377466
-0.00935095
0.116165
0.0952488
0.00807427
0.105892
-0.0170063
0.103069
-0.000951536
-0.0189178
0.112636
0.0957944
0.0122798
0.108706
-0.0299179
0.103958
0.00379622
-0.0392629
0.124303
0.102429
0.00985038
0.0940577
-0.0215462
0.0973154
0.000538521
0.144647
-0.0865949
0.110555
0.00561012
-0.017037
0.127592
0.108621
0.00962532
-0.0422576
0.133841
0.125188
0.00874103
-0.0456452
0.128575
0.153388
0.107743
0.127168
0.00042418
0.128387
-0.00121883
0.129905
-0.0015186
-0.00167158
0.131577
0.133429
0.000836546
0.134222
-0.00201127
0.136429
-0.00372642
-0.00185375
0.136612
0.131783
-0.00237118
0.140333
-0.010561
0.13641
0.000196787
0.00299175
0.131564
0.101344
0.00402832
0.109209
-0.0184266
0.106261
0.00314546
0.0938451
0.0154072
0.131905
-0.000328018
0.132112
-0.000207098
0.131358
0.00075365
0.130699
0.000658981
0.129821
0.000878948
0.12807
0.00175024
0.126581
0.00148893
0.124571
0.00201077
0.123723
0.000847823
0.122987
0.000735554
0.12371
-0.000722563
0.124413
-0.000703428
0.125801
-0.00138784
0.127193
-0.00139199
0.127436
-0.000242967
0.127257
0.000179206
0.125455
0.00180211
0.12343
0.00202451
0.120276
0.00315383
0.117219
0.00305691
0.113761
0.00345846
0.110526
0.00323479
0.108226
0.00230054
0.106723
0.00150293
0.107758
-0.00103515
0.109503
-0.00174526
0.112591
-0.003088
0.11452
-0.00192844
0.115587
-0.0010678
0.115109
0.000478065
0.113308
0.00180178
0.111543
0.00176415
0.109098
0.00244501
0.108007
0.00109109
0.106853
0.00115454
0.107199
-0.00034631
0.107431
-0.000231796
0.107713
-0.000282167
0.107753
-4.00886e-05
0.00168412
0.136011
0.000272837
0.136731
-0.000927608
0.137282
0.000202664
0.137474
0.000467141
0.136293
0.00205952
0.134694
0.00334986
0.132681
0.00350176
0.130794
0.00389781
0.129945
0.0016968
0.1296
0.00108032
0.130201
-0.00132291
0.13152
-0.00202286
0.133647
-0.00351521
0.135252
-0.00299697
0.136592
-0.00158232
0.137123
-0.000351721
0.136268
0.0026571
0.134934
0.0033581
0.132499
0.00558859
0.130411
0.00514481
0.127624
0.00624629
0.124346
0.00651188
0.120796
0.00585119
0.118167
0.00413217
0.117719
-0.000587592
0.118758
-0.00278412
0.121402
-0.00573167
0.123941
-0.00446777
0.125898
-0.00302525
0.126832
-0.000455591
0.126529
0.00210508
0.126034
0.0022585
0.123897
0.0045821
0.123482
0.00150592
0.122783
0.00185378
0.123044
-0.000607003
0.124166
-0.00135356
0.124808
-0.000924577
0.126185
-0.00141694
0.00185338
0.133262
-0.00142483
0.134945
-0.00261111
0.135887
-0.000738903
0.135982
0.000372405
0.134446
0.00359541
0.13319
0.00460508
0.131431
0.00526117
0.130145
0.00518428
0.128217
0.00362473
0.126926
0.00237128
0.126231
-0.000627844
0.127215
-0.00300775
0.128761
-0.0050606
0.130441
-0.00467662
0.133136
-0.00427763
0.135375
-0.00259129
0.137578
0.000454063
0.137439
0.0034973
0.135822
0.00720552
0.131778
0.00918935
0.125945
0.0120787
0.120026
0.0124312
0.115101
0.0107765
0.112892
0.00634115
0.111951
0.000352859
0.113157
-0.00398934
0.114989
-0.00756396
0.116694
-0.00617305
0.117689
-0.00401992
0.118596
-0.00136247
0.118849
0.00185194
0.118727
0.00238
0.119087
0.00422271
0.118599
0.00199324
0.11808
0.00237263
0.117855
-0.000381858
0.118731
-0.00222929
0.119604
-0.00179782
0.122134
-0.00394628
-9.41119e-05
0.105393
-0.0129724
0.102923
-0.000140973
0.102916
-0.000731952
0.105022
-0.00173443
0.104479
0.00413873
0.108287
0.000796733
0.10767
0.00587819
0.103994
0.00886094
0.0994186
0.00819989
0.0942515
0.00753846
0.090627
0.00299662
0.0883977
-0.000778467
0.0873809
-0.0040438
0.0905002
-0.00779588
0.0951394
-0.00891684
0.100992
-0.00844383
0.107509
-0.00606307
0.113596
-0.00258951
0.120473
0.000328381
0.126252
0.00341026
0.132504
0.00582644
0.137355
0.00758016
0.139695
0.00843666
0.137021
0.00901509
0.128163
0.00921093
0.117475
0.00669844
0.107615
0.00229614
0.100327
0.00111483
0.0962013
0.000106175
0.0949008
-6.18897e-05
0.0930364
0.00371633
0.0900358
0.00538057
0.0875216
0.00673687
0.0826717
0.00684316
0.0793711
0.00567326
0.0773445
0.00164477
0.0771217
-0.00200656
0.079413
-0.00408906
0.0842173
-0.00875062
-0.00480407
0.109182
0.000668689
0.0876522
-1.66719e-05
0.0868237
0.001367
0.00022886
0.111315
-0.0106458
0.0886023
0.0226956
0.0899407
2.8585e-05
0.0901695
-0.00599738
0.0100257
0.0201803
-0.0446043
0.0224118
0.000914037
0.0421892
-0.00437025
-0.00100845
0.0110341
-0.0265693
-0.0190435
-0.0267021
0.00104687
0.0155431
-5.59582e-05
0.00731534
-0.024658
-0.00388667
0.011061
0.000326113
-0.00494474
0.011644
-0.0130523
0.00443033
0.0113524
0.00550187
-0.000274813
0.0120045
-0.000624388
0.014214
0.00665137
0.0132304
0.00918348
0.0137521
0.0070168
0.0162712
0.00047751
0.0206247
-0.00513199
0.0267755
-0.0101946
0.0309353
-0.0119557
0.03425
-0.0122314
0.0377939
-0.0119878
0.0409442
-0.00921342
0.042839
-0.00448428
0.0428614
0.000306009
0.0416528
0.00461884
0.03848
0.00899925
0.0349038
0.0111564
0.0302763
0.0130641
0.0269728
0.0123186
0.0259637
0.0102201
0.0250822
0.0075799
0.0263465
0.00103179
0.0286552
-0.00119381
0.0300205
-0.00125916
0.0319206
-0.00196201
0.0332538
0.00238315
0.0339302
0.00470424
0.0347806
0.00588643
0.0354859
0.00613784
0.0370529
0.00410625
0.0391586
-0.000460878
0.0407179
-0.00356586
0.0437521
-0.00712324
0.0475618
-0.0125603
-0.00689228
-0.00224755
-0.00686738
0.00319351
0.00561997
0.00534452
-0.00709575
-0.00331579
-0.00439202
0.0037592
0.00427742
0.00407373
-0.000589343
0.00445073
-0.00100138
0.00714153
0.00396057
0.0118213
0.00450375
0.0180045
0.000833543
0.0214377
-0.00295566
0.0228147
-0.006509
0.0220998
-0.00947974
0.0207985
-0.0106544
0.0204186
-0.0118515
0.0192282
-0.0107974
0.0166192
-0.00660446
0.0148988
-0.00276387
0.0142337
0.000971132
0.0145741
0.0042785
0.0159625
0.00761083
0.0172877
0.00983116
0.0195078
0.0108441
0.0220429
0.00978349
0.0264423
0.00582066
0.0308764
0.00314581
0.0324387
-0.000530524
0.0345097
-0.00326477
0.0371307
-0.00388014
0.0382635
-0.00309487
0.040884
-0.000237329
0.0452836
0.00030463
0.0484039
0.00276618
0.0523985
0.00214325
0.0564996
5.14225e-06
0.0578124
-0.00177373
0.0588459
-0.00459935
0.0584179
-0.00669528
0.0548554
-0.00899774
-0.00518773
0.102934
-0.0135803
0.0936101
0.0320199
0.0983547
-0.00471604
0.0409609
0.147563
0.0958192
-0.0093995
0.109286
0.018553
0.103785
0.000784622
0.0192042
0.125542
0.0948882
-0.00428767
0.105802
0.00763882
0.103082
0.00350526
0.00964455
0.112641
0.0957123
0.103351
0.106856
0.116501
0.155127
-0.0075637
0.0468073
0.10832
0.126363
-0.00838458
0.041176
0.131994
0.109446
-0.00518926
0.0164033
0.134219
0.111312
0.127715
0.116543
0.0028113
0.0957018
0.00179733
0.0955074
0.00124123
-0.000618471
0.0960699
0.134442
0.000363773
0.136589
-0.000349564
0.137781
4.88973e-05
0.000472093
0.136691
0.135038
-0.000455138
0.134857
-0.000169047
0.133872
0.00103376
0.000403368
0.133941
0.12726
0.127091
0.128125
0.128528
0.0911697
-0.0019672
0.0954155
0.00137417
0.0888093
-0.000489494
0.0844113
5.97816e-06
0.0859733
0.00271545
0.0839857
0.00139826
0.0824756
0.000508697
0.085503
0.000933135
0.090658
-0.000651259
0.094616
-0.0031244
0.0984952
-0.00683487
0.098985
-0.00699879
0.096163
-0.00665776
0.0902418
-0.00473325
0.0812274
-0.0028371
0.0719542
-0.00152415
0.0647114
0.000638322
0.0602809
0.00166667
0.0574777
0.00377425
0.057949
0.0038072
0.0609932
0.00456664
0.0662702
0.00455421
0.0736439
0.00347033
0.0805237
0.00290372
0.0880676
-0.00172322
0.0947252
-0.00351185
0.100711
-0.00651642
0.10344
-0.00599339
0.104301
-0.00474134
0.104801
-0.00359506
0.10485
-0.000286415
0.106024
-0.000869064
0.107662
0.00112821
0.111682
-0.0018765
0.114563
-0.0028763
0.11888
-0.00609114
0.122078
-0.00779733
0.122275
-0.0068917
0.120745
-0.00746775
-0.00269615
0.132892
0.00183158
0.133555
0.00071097
0.132433
0.000632208
0.132482
-4.31203e-05
0.135002
0.000195766
0.134948
0.00145237
0.135316
0.000141177
0.136009
0.000239741
0.137947
-0.00258896
0.137988
-0.00316584
0.137307
-0.00615364
0.136231
-0.00592323
0.135311
-0.00573716
0.135468
-0.00489071
0.134585
-0.00195379
0.133446
-0.000385354
0.131019
0.00306544
0.129625
0.00306066
0.12833
0.00506911
0.127407
0.00473012
0.127437
0.00453644
0.128099
0.00389235
0.130349
0.0012207
0.133253
-7.8586e-07
0.135409
-0.00387886
0.136781
-0.00488404
0.137009
-0.00674442
0.137034
-0.0060185
0.137236
-0.00494349
0.13742
-0.00377819
0.137662
-0.000528843
0.138207
-0.0014144
0.138783
0.000553038
0.1397
-0.00279376
0.139382
-0.00255889
0.137908
-0.00461684
0.135276
-0.00516501
0.132311
-0.00392695
0.129217
-0.00437408
-0.000286031
0.134635
0.00113725
0.134742
0.000604247
0.135218
0.000156559
0.135509
-0.000334348
0.136229
-0.000523903
0.137339
0.000342028
0.137678
-0.000197914
0.13816
-0.000241917
0.137112
-0.00154105
0.136008
-0.00206202
0.133189
-0.00333499
0.130686
-0.00341988
0.127783
-0.00283462
0.125256
-0.00236323
0.124419
-0.00111696
0.12449
-0.000456738
0.12602
0.00153561
0.127509
0.00157172
0.130236
0.00234187
0.132648
0.00231845
0.134933
0.00225198
0.137098
0.00172675
0.137923
0.000396213
0.138588
-0.000666044
0.137233
-0.00252383
0.135441
-0.00309245
0.132673
-0.00397573
0.129872
-0.0032177
0.127546
-0.00261786
0.125422
-0.00165419
0.125268
-0.000374331
0.124414
-0.000560456
0.124882
8.506e-05
0.123478
-0.00139023
0.122281
-0.00136155
0.120514
-0.00285026
0.118205
-0.00285614
0.116726
-0.00244712
0.114295
-0.0019437
0.000266158
0.129665
0.130269
0.130426
0.130092
0.129568
0.12991
0.129712
0.12947
0.127929
0.125867
0.122532
0.119112
0.116277
0.113914
0.112797
0.11234
0.113876
0.115448
0.11779
0.120108
0.12236
0.124087
0.124483
0.123817
0.121293
0.118201
0.114225
0.111007
0.108389
0.106735
0.106361
0.1058
0.105886
0.104495
0.103134
0.100284
0.0974274
0.0949803
0.0930366
)
;

boundaryField
{
    inlet
    {
        type            calculated;
        value           nonuniform List<scalar> 10(-0.1 -0.1 -0.1 -0.1 -0.1 -0.1 -0.1 -0.1 -0.1 -0.1);
    }
    outlet
    {
        type            calculated;
        value           nonuniform List<scalar> 10(0.106069 0.126016 0.124081 0.0889273 0.04965 0.0531508 0.118253 0.126807 0.113743 0.0933027);
    }
    obstacle
    {
        type            calculated;
        value           uniform 0;
    }
    upperWall
    {
        type            calculated;
        value           uniform 0;
    }
    lowerWall
    {
        type            calculated;
        value           uniform 0;
    }
    frontAndBack
    {
        type            empty;
        value           nonuniform List<scalar> 0();
    }
}


// ************************************************************************* //
