/*--------------------------------*- C++ -*----------------------------------*\
  =========                 |
  \\      /  F ield         | OpenFOAM: The Open Source CFD Toolbox
   \\    /   O peration     | Website:  https://openfoam.org
    \\  /    A nd           | Version:  10
     \\/     M anipulation  |
\*---------------------------------------------------------------------------*/
FoamFile
{
    format      ascii;
    class       volVectorField;
    location    "5";
    object      U;
}
// * * * * * * * * * * * * * * * * * * * * * * * * * * * * * * * * * * * * * //

dimensions      [0 1 -1 0 0 0 0];

internalField   nonuniform List<vector> 
496
(
(9.9503 0.0480524 0)
(10.0164 -0.124059 0)
(10.1278 -0.14445 0)
(10.7796 -0.215871 0)
(10.0302 0.440081 0)
(9.89273 -1.15288 0)
(10.1927 -0.389131 0)
(10.8707 -1.14577 0)
(10.8059 1.32123 0)
(9.08559 -2.79253 0)
(11.3218 -0.18386 0)
(10.529 -3.94805 0)
(12.1308 1.47548 0)
(8.05856 -2.57429 0)
(13.0027 0.784929 0)
(9.75127 -6.49178 0)
(11.4082 -0.187272 2.93877e-18)
(12.2028 -0.218528 -3.56881e-19)
(11.6524 -0.417331 -5.1716e-19)
(12.4345 0.00484379 1.85809e-18)
(13.1857 -2.01282 -2.42515e-18)
(12.7259 -0.57605 -1.50101e-18)
(13.4575 -5.2442 -3.25067e-17)
(14.9254 -4.47643 6.26511e-17)
(12.6707 -0.155865 0)
(13.0635 -0.180082 0)
(13.2032 -0.0417733 0)
(13.3505 -0.0194651 0)
(13.0321 0.0749824 0)
(13.4461 -0.370679 0)
(13.7315 -0.532813 0)
(13.8944 -0.554348 0)
(12.8143 0.934975 0)
(12.4591 0.580041 0)
(13.2639 0.322549 0)
(13.586 0.44893 0)
(11.8394 -2.48134 0)
(10.1237 -2.02106 0)
(8.10457 -0.168107 0)
(11.3067 -0.116333 0)
(13.3807 0.172112 0)
(13.3474 0.215838 0)
(13.2844 0.326652 0)
(13.1345 0.348097 0)
(13.0591 0.384718 0)
(12.8613 0.448841 0)
(12.7781 0.419638 0)
(12.5146 0.465266 0)
(12.4512 0.355338 0)
(12.2776 0.336442 0)
(12.3392 0.216634 0)
(12.3707 0.208054 0)
(12.5335 0.165685 0)
(12.6392 0.152705 0)
(12.7623 0.201411 0)
(12.7408 0.226487 0)
(12.5988 0.363174 0)
(12.4447 0.39006 0)
(12.2935 0.498515 0)
(11.9475 0.506107 0)
(11.5776 0.581285 0)
(11.093 0.604266 0)
(10.931 0.54608 0)
(10.6569 0.445965 0)
(10.7821 0.252363 0)
(10.7807 0.166474 0)
(11.1294 0.0643678 0)
(11.3277 0.0755791 0)
(11.5636 0.104082 0)
(11.6113 0.153524 0)
(11.4393 0.261656 0)
(11.2568 0.263562 0)
(10.9763 0.351329 0)
(10.8243 0.243137 0)
(10.7747 0.241163 0)
(10.6179 0.157534 0)
(10.8464 0.139628 0)
(10.6097 0.197219 0)
(10.9298 0.189424 0)
(10.6029 0.336514 0)
(14.0274 -0.392219 0)
(13.9125 -0.361811 0)
(13.8734 -0.273892 0)
(13.696 -0.251381 0)
(13.673 -0.177561 0)
(13.4988 -0.0526819 0)
(13.3816 -0.0772065 0)
(13.1634 -0.0179587 0)
(12.9985 -0.154969 0)
(12.9211 -0.163185 0)
(12.9449 -0.310311 0)
(13.0917 -0.328065 0)
(13.2363 -0.397539 0)
(13.4374 -0.383866 0)
(13.6441 -0.228259 0)
(13.7171 -0.142573 0)
(13.6938 0.0749063 0)
(13.513 0.130744 0)
(13.4535 0.226335 0)
(13.1657 0.10564 0)
(12.9684 0.0423903 0)
(12.5562 -0.0291991 0)
(12.2495 -0.117167 0)
(11.9099 -0.135821 0)
(11.7495 -0.379092 0)
(11.8022 -0.432876 0)
(11.9501 -0.588383 0)
(12.2784 -0.39292 0)
(12.498 -0.270912 0)
(12.7078 -0.0425901 0)
(12.7227 0.079206 0)
(12.6004 0.098511 0)
(12.5376 0.157012 0)
(12.2662 0.0078867 0)
(12.3836 0.0260067 0)
(12.1844 -0.196683 0)
(12.4433 -0.168509 0)
(12.3665 -0.239727 0)
(12.6091 -0.159919 0)
(12.5986 0.0371416 0)
(13.8906 0.476462 0)
(13.6735 0.210987 0)
(13.6152 0.338699 0)
(13.5895 0.28587 0)
(13.5288 0.485049 0)
(13.5445 0.628083 0)
(13.2003 0.707665 0)
(13.1514 0.748649 0)
(12.7584 0.472666 0)
(12.792 0.348324 0)
(12.5786 -0.108034 0)
(12.6545 -0.197812 0)
(12.6895 -0.423582 0)
(12.9079 -0.329522 0)
(13.3028 -0.186108 0)
(13.3981 -0.0291265 0)
(13.7311 0.349765 0)
(13.6847 0.539756 0)
(13.7883 0.979391 0)
(13.422 1.08906 0)
(12.9749 1.42684 0)
(12.2905 1.51962 0)
(11.6583 1.38637 0)
(11.4124 0.957317 0)
(11.1022 0.0933769 0)
(11.3223 -0.368284 0)
(11.3071 -0.848358 0)
(11.6108 -0.71251 0)
(11.7642 -0.455099 0)
(11.7955 -0.100398 0)
(11.9947 0.368472 0)
(11.728 0.342424 0)
(12.0538 0.680615 0)
(11.7202 0.250497 0)
(11.9567 0.29878 0)
(11.7119 -0.0100574 0)
(11.7922 -0.156202 0)
(11.9175 0.00892512 0)
(11.9722 -0.18336 0)
(12.4245 0.307745 0)
(10.144 -0.494155 0)
(9.58916 -0.401389 0)
(10.5318 -0.38694 0)
(9.74104 -0.0975473 0)
(10.9962 0.112783 0)
(10.6604 0.144184 0)
(10.9283 0.373692 0)
(10.6478 0.401011 0)
(10.1488 0.406256 0)
(9.8679 0.324743 0)
(8.92773 0.237289 0)
(9.06743 -0.0220603 0)
(8.31738 -0.268789 0)
(9.16106 -0.460371 0)
(9.06168 -0.582837 0)
(9.88325 -0.509424 0)
(10.4043 -0.39819 0)
(10.98 -0.111701 0)
(11.8629 0.0912197 0)
(12.1818 0.309784 0)
(13.1507 0.476658 0)
(13.4579 0.550401 0)
(14.0794 0.514575 0)
(13.9348 0.318993 0)
(13.2907 0.190889 0)
(12.4753 0.0213608 0)
(10.9431 -0.149533 0)
(10.4195 -0.25492 0)
(9.70593 -0.312189 0)
(9.58927 -0.199526 0)
(9.4294 -0.0208323 0)
(9.12217 0.141697 0)
(9.1352 0.32367 0)
(8.17776 0.299559 0)
(8.33763 0.342233 0)
(7.64889 0.138174 0)
(7.59029 -0.125645 0)
(7.99258 -0.264464 0)
(7.81019 -0.595367 0)
(8.93963 -0.381361 0)
(12.2012 0.627764 -1.06127e-17)
(7.87155 -0.831474 -1.78641e-17)
(11.4526 0.130511 3.12804e-17)
(4.78866 -4.55679 -8.47284e-17)
(12.3185 -0.513574 1.04565e-17)
(8.04628 0.803379 1.76999e-17)
(11.5074 0.182157 -3.09187e-17)
(5.23787 4.64857 8.41787e-17)
(2.02111 3.59292 0)
(-4.04055 -3.74833 0)
(7.57946 0.121144 0)
(-1.7345 4.05533 0)
(-7.37227 -1.41354 3.50773e-17)
(8.64606 -4.20341 0)
(-12.2794 0.0994302 0)
(4.60281 2.1261 0)
(0.68017 -3.1623 0)
(0.748546 0.0996447 0)
(-1.53878 0.0814718 0)
(1.48819 -0.511176 0)
(1.17652 0.841864 0)
(-0.214569 0.134547 0)
(1.02554 0.536785 0)
(1.76626 1.10756 0)
(1.0013 1.0958 0)
(1.49852 0.999872 0)
(1.33094 0.199396 0)
(1.68298 -0.386772 0)
(2.48839 -0.844834 0)
(2.95157 -1.24034 0)
(3.16816 -1.26992 0)
(3.61411 -1.14557 0)
(3.78197 -0.890932 0)
(4.4352 -0.444334 0)
(4.16908 0.0495469 0)
(4.36972 0.528969 0)
(4.08134 0.957719 0)
(3.71615 1.18993 0)
(3.26926 1.30212 0)
(2.61047 1.3182 0)
(2.93865 1.34866 0)
(2.39225 1.08457 0)
(2.32821 0.445843 0)
(3.02373 0.378161 0)
(2.7781 0.320552 0)
(3.08726 0.173776 0)
(3.36629 0.630081 0)
(3.40477 0.836329 0)
(3.32595 0.804278 0)
(3.5384 0.783181 0)
(3.66632 0.620763 0)
(3.70671 0.063589 0)
(4.02968 -0.329864 0)
(4.16746 -0.558562 0)
(4.4966 -1.06199 0)
(4.97219 -0.510344 0)
(0.340405 -0.43946 0)
(-1.67711 1.81206 0)
(2.62907 -0.808785 0)
(-1.14287 -1.22977 0)
(0.110884 1.07325 0)
(0.915191 -0.195558 0)
(-0.0118882 -0.521585 0)
(0.872299 0.263422 0)
(0.381795 0.449159 0)
(1.8636 0.0771853 0)
(2.14006 -0.301053 0)
(2.00153 -0.71738 0)
(2.48979 -1.09997 0)
(1.9535 -1.18832 0)
(2.04403 -1.18955 0)
(2.17556 -1.11104 0)
(1.68084 -0.675651 0)
(1.42667 -0.261457 0)
(1.56429 0.161669 0)
(1.34376 0.453479 0)
(1.62736 0.736275 0)
(1.71959 0.923171 0)
(1.65515 1.04908 0)
(2.10614 0.903146 0)
(2.4057 0.462716 0)
(3.0404 0.185879 0)
(3.15706 -0.239521 0)
(3.18775 -0.582508 0)
(3.80938 -0.580593 0)
(3.66815 -0.496445 0)
(3.72906 -0.152654 0)
(4.61967 0.00870946 0)
(4.43045 0.281843 0)
(5.07168 0.309057 0)
(5.53162 0.0559804 0)
(5.82018 -0.237289 0)
(5.70377 -0.491027 0)
(6.08745 -0.87803 0)
(5.69227 -1.33081 0)
(5.27485 -0.848605 0)
(12.0696 -1.699 0)
(8.01409 2.83067 0)
(13.0719 -1.02878 0)
(9.94625 6.84466 0)
(10.8283 -1.40123 0)
(9.11081 2.96975 0)
(11.2516 0.237088 0)
(10.7539 4.08699 0)
(10.0336 -0.577297 0)
(9.83076 1.3386 0)
(10.2124 0.347261 0)
(10.848 1.13928 0)
(9.94667 -0.0982981 0)
(9.92041 0.200361 0)
(10.1555 0.137485 0)
(10.7594 0.210277 0)
(13.6166 5.2799 3.81022e-17)
(15.2947 4.6972 -6.76588e-17)
(13.0847 2.25888 0)
(13.1136 0.469739 0)
(11.6796 0.452167 0)
(12.4874 -0.185454 0)
(11.5097 0.237706 0)
(12.1704 0.187689 0)
(11.704 2.58848 0)
(9.2028 1.77149 0)
(10.6719 0.985639 0)
(7.63157 -0.480122 0)
(12.6852 -0.676435 0)
(12.6937 -0.985226 0)
(13.1589 -0.946829 0)
(13.3649 -0.503391 0)
(13.1038 -0.149186 0)
(13.4634 0.121488 0)
(13.7661 0.458904 0)
(13.7944 0.459344 0)
(12.7659 0.201321 0)
(12.9976 0.14622 0)
(13.1805 0.0946828 0)
(13.1097 -0.0977041 0)
(9.65744 -0.669518 0)
(9.6005 -0.0401713 0)
(8.48858 -0.252719 0)
(10.0299 0.0373023 0)
(7.72293 0.235068 0)
(8.48955 0.128596 0)
(8.22366 0.241586 0)
(8.61268 0.292381 0)
(8.80984 0.409238 0)
(8.99812 0.164645 0)
(10.1513 -0.14735 0)
(9.55008 -0.331714 0)
(10.306 -0.452629 0)
(9.07095 -0.390997 0)
(8.7005 -0.506154 0)
(7.41194 -0.469285 0)
(6.73646 -0.410049 0)
(6.49484 -0.194581 0)
(5.42213 0.118523 0)
(6.00127 0.314582 0)
(5.64005 0.60332 0)
(6.50303 0.686304 0)
(7.03129 0.786591 0)
(7.48718 0.772901 0)
(8.69246 0.53284 0)
(9.00942 0.399533 0)
(10.0088 0.0723313 0)
(10.1815 0.0125369 0)
(10.3911 -0.0502781 0)
(10.5881 -0.00776744 0)
(10.162 0.201547 0)
(10.8251 0.154375 0)
(10.3749 0.315766 0)
(11.1623 0.170466 0)
(11.1539 0.0542325 0)
(11.7888 -0.127845 0)
(12.1601 -0.309122 0)
(12.1092 -0.272428 0)
(12.6423 -0.285757 0)
(11.7639 -0.0703243 0)
(13.5613 -0.0722244 0)
(13.6928 -0.0561035 0)
(13.649 -0.0189929 0)
(13.5204 -0.103372 0)
(13.4913 -0.0436472 0)
(13.1477 0.107228 0)
(13.6079 -0.109509 0)
(13.3541 -0.0595733 0)
(13.8627 -0.409726 0)
(13.6921 -0.527993 0)
(13.931 -0.974575 0)
(13.6756 -1.0331 0)
(13.5866 -0.99236 0)
(13.5589 -0.829948 0)
(13.4134 -0.371742 0)
(13.4398 -0.0920386 0)
(13.0734 0.317823 0)
(13.17 0.292959 0)
(12.8578 0.445397 0)
(12.7697 0.427869 0)
(12.7417 0.384519 0)
(12.6486 0.390097 0)
(13.0432 0.0448732 0)
(13.0669 -0.0695794 0)
(13.6059 -0.624804 0)
(13.5594 -0.822449 0)
(13.771 -1.16512 0)
(13.6545 -1.21186 0)
(13.6952 -1.02371 0)
(13.7647 -0.891659 0)
(13.69 -0.390125 0)
(13.846 -0.446417 0)
(13.7856 -0.170759 0)
(13.9765 -0.477601 0)
(13.9519 -0.509049 0)
(13.9102 -0.844375 0)
(13.7287 -1.12913 0)
(13.3008 -1.06477 0)
(13.1464 -1.25738 0)
(12.6775 -0.539886 0)
(13.6539 0.574131 0)
(13.6008 0.389458 0)
(13.5897 0.292811 0)
(13.669 0.183317 0)
(13.6102 0.156575 0)
(13.6338 0.249316 0)
(13.6642 0.166646 0)
(13.7758 0.15284 0)
(13.7504 -0.0463217 0)
(13.6458 -0.13343 0)
(13.51 -0.27487 0)
(13.2455 -0.228098 0)
(12.9896 -0.120182 0)
(12.6418 -0.0410158 0)
(12.4518 0.0778826 0)
(12.3356 0.111587 0)
(12.4522 0.345407 0)
(12.656 0.36473 0)
(12.9299 0.511412 0)
(13.1649 0.491505 0)
(13.3792 0.497029 0)
(13.5918 0.397099 0)
(13.7742 0.217605 0)
(13.8879 0.0499029 0)
(13.8458 -0.21039 0)
(13.6461 -0.282956 0)
(13.4169 -0.345704 0)
(13.0807 -0.159815 0)
(12.9028 -0.00727835 0)
(12.6057 0.156938 0)
(12.5593 0.31094 0)
(12.4423 0.259907 0)
(12.4675 0.333314 0)
(12.4431 0.0649911 0)
(12.2481 0.0561686 0)
(12.2178 -0.115223 0)
(11.8663 -0.0053183 0)
(11.8419 0.130956 0)
(11.507 0.2802 0)
(11.3877 0.506322 0)
(13.0839 -0.165562 0)
(12.9945 -0.226896 0)
(13.0181 -0.267678 0)
(13.0672 -0.281031 0)
(13.0614 -0.311588 0)
(13.0572 -0.226767 0)
(12.9662 -0.250188 0)
(12.9681 -0.237499 0)
(12.8522 -0.335971 0)
(12.7127 -0.326263 0)
(12.4515 -0.384279 0)
(12.1258 -0.406442 0)
(11.8263 -0.424362 0)
(11.4559 -0.41311 0)
(11.3375 -0.328225 0)
(11.1348 -0.236788 0)
(11.294 -0.101277 0)
(11.3694 -0.0507812 0)
(11.728 0.00128255 0)
(11.8941 0.00249392 0)
(12.1643 -0.0215322 0)
(12.3216 -0.0526603 0)
(12.4646 -0.140925 0)
(12.4829 -0.170935 0)
(12.2969 -0.26516 0)
(11.988 -0.267807 0)
(11.6161 -0.362025 0)
(11.2037 -0.375035 0)
(11.0092 -0.433579 0)
(10.6783 -0.432277 0)
(10.7415 -0.380052 0)
(10.5083 -0.404075 0)
(10.6497 -0.339727 0)
(10.4783 -0.4435 0)
(10.4033 -0.419513 0)
(10.2403 -0.506189 0)
(9.80799 -0.546853 0)
(9.73111 -0.551636 0)
(9.27525 -0.597459 0)
(9.33629 -0.418032 0)
)
;

boundaryField
{
    inlet
    {
        type            fixedValue;
        value           uniform (10 0 0);
    }
    outlet
    {
        type            zeroGradient;
    }
    obstacle
    {
        type            noSlip;
    }
    upperWall
    {
        type            noSlip;
    }
    lowerWall
    {
        type            noSlip;
    }
    frontAndBack
    {
        type            empty;
    }
}


// ************************************************************************* //
