/*--------------------------------*- C++ -*----------------------------------*\
  =========                 |
  \\      /  F ield         | OpenFOAM: The Open Source CFD Toolbox
   \\    /   O peration     | Website:  https://openfoam.org
    \\  /    A nd           | Version:  10
     \\/     M anipulation  |
\*---------------------------------------------------------------------------*/
FoamFile
{
    format      ascii;
    class       surfaceScalarField;
    location    "3.85";
    object      phi;
}
// * * * * * * * * * * * * * * * * * * * * * * * * * * * * * * * * * * * * * //

dimensions      [0 3 -1 0 0 0 0];

internalField   nonuniform List<scalar> 
760
(
-9.44551e-06
9.44551e-06
-2.92033e-05
1.97578e-05
-5.10556e-05
2.18523e-05
-7.24641e-05
2.14085e-05
-9.26534e-05
2.01893e-05
-0.000111173
1.85192e-05
-0.000127585
1.6412e-05
-0.00014142
1.38349e-05
-0.000152175
1.07554e-05
-0.000159326
7.1512e-06
-0.000162343
3.01657e-06
-0.000160715
-1.62752e-06
-0.000154009
-6.70581e-06
-0.000141934
-1.20754e-05
-0.000124414
-1.75198e-05
-0.000101683
-2.27315e-05
-7.44374e-05
-2.72454e-05
-4.42823e-05
-3.01551e-05
-1.54388e-05
-2.88436e-05
-1.54387e-05
-2.04658e-05
2.99113e-05
-5.56334e-05
5.49254e-05
-9.3493e-05
5.97119e-05
-0.000130264
5.81799e-05
-0.000164601
5.45261e-05
-0.000195658
4.95758e-05
-0.000222667
4.3421e-05
-0.00024487
3.60377e-05
-0.000261509
2.73945e-05
-0.000271833
1.74761e-05
-0.000275108
6.29133e-06
-0.000270732
-6.00367e-06
-0.000258124
-1.93134e-05
-0.000236991
-3.32084e-05
-0.000207354
-4.71569e-05
-0.000169686
-6.03999e-05
-0.000125127
-7.18041e-05
-7.61395e-05
-7.91429e-05
-2.87579e-05
-7.62251e-05
-4.41967e-05
-2.40024e-05
5.39137e-05
-6.4361e-05
9.5284e-05
-0.000107521
0.000102872
-0.000149304
9.99628e-05
-0.000188241
9.34633e-05
-0.000223406
8.47407e-05
-0.00025396
7.39749e-05
-0.000279081
6.11583e-05
-0.000297951
4.62644e-05
-0.000309763
2.92889e-05
-0.000313763
1.02913e-05
-0.000309111
-1.06557e-05
-0.000295209
-3.32153e-05
-0.000271648
-5.67698e-05
-0.000238336
-8.04693e-05
-0.000195677
-0.000103058
-0.000144851
-0.00012263
-8.85822e-05
-0.000135412
-3.37508e-05
-0.000131057
-7.79475e-05
-2.55524e-05
7.94661e-05
-6.86176e-05
0.000138349
-0.000114618
0.000148872
-0.000159163
0.000144508
-0.00020076
0.00013506
-0.000238478
0.000122459
-0.000271475
0.000106972
-0.000298916
8.85992e-05
-0.000319955
6.73034e-05
-0.000333728
4.30618e-05
-0.000339367
1.59308e-05
-0.000335964
-1.40594e-05
-0.000322602
-4.65771e-05
-0.0002986
-8.07714e-05
-0.000263578
-0.000115491
-0.000217698
-0.000148939
-0.000162026
-0.000178302
-9.95116e-05
-0.000197926
-3.7998e-05
-0.00019257
-0.000115945
-2.70631e-05
0.000106529
-7.29083e-05
0.000184194
-0.000121905
0.000197868
-0.000169432
0.000192036
-0.00021398
0.000179608
-0.000254634
0.000163113
-0.00029057
0.000142907
-0.000320958
0.000118988
-0.000344934
9.12792e-05
-0.000361569
5.96965e-05
-0.000369855
2.42177e-05
-0.000368698
-1.52163e-05
-0.000356843
-5.84327e-05
-0.000333169
-0.000104445
-0.00029677
-0.00015189
-0.000247296
-0.000198413
-0.000185534
-0.000240064
-0.000114689
-0.000268772
-4.40056e-05
-0.000263253
-0.000159951
-2.89781e-05
0.000135507
-7.82955e-05
0.000233512
-0.00013104
0.000250613
-0.000182299
0.000243295
-0.000230541
0.00022785
-0.000274886
0.000207458
-0.000314551
0.000182572
-0.000348738
0.000153175
-0.000376585
0.000119126
-0.000397111
8.02229e-05
-0.000409174
3.62798e-05
-0.000411465
-1.2925e-05
-0.000402239
-6.76582e-05
-0.000379775
-0.00012691
-0.00034236
-0.000189305
-0.000288759
-0.000252014
-0.00021911
-0.000309713
-0.000136766
-0.000351115
-5.29813e-05
-0.000347038
-0.000212932
-3.13864e-05
0.000166894
-8.50082e-05
0.000287133
-0.000142365
0.00030797
-0.000198179
0.000299109
-0.000250905
0.000280576
-0.000299722
0.000256275
-0.000343924
0.000226774
-0.000382791
0.000192041
-0.000415511
0.000151846
-0.000441098
0.000105811
-0.000458298
5.34791e-05
-0.000465602
-5.62081e-06
-0.000460694
-7.2566e-05
-0.00044103
-0.000146574
-0.000403706
-0.00022663
-0.00034601
-0.000309709
-0.000266708
-0.000389015
-0.000168889
-0.000448935
-6.65466e-05
-0.00044938
-0.000279479
-3.43256e-05
0.000201219
-9.31466e-05
0.000345955
-0.000156006
0.000370829
-0.000217188
0.000360291
-0.000275146
0.000338534
-0.000329156
0.000310285
-0.000378641
0.000276259
-0.000423027
0.000236428
-0.00046164
0.000190459
-0.000493581
0.000137751
-0.000517562
7.74606e-05
-0.000531951
8.76835e-06
-0.000533863
-7.06545e-05
-0.000519724
-0.000160712
-0.000484959
-0.000261395
-0.000424495
-0.000370173
-0.000334418
-0.000479092
-0.00021637
-0.000566982
-8.78147e-05
-0.000577936
-0.000367294
-3.78573e-05
0.000239077
-0.00010285
0.000410948
-0.000172126
0.000440105
-0.00023945
0.000427616
-0.000303301
0.000402384
-0.000363103
0.000370087
-0.000418485
0.000331641
-0.000469114
0.000287057
-0.000514575
0.00023592
-0.000554221
0.000177396
-0.000586955
0.000110195
-0.000610848
3.26612e-05
-0.000623203
-5.82988e-05
-0.000618985
-0.000164931
-0.000591506
-0.000288874
-0.000532135
-0.000429545
-0.000432131
-0.000579095
-0.000288949
-0.000710164
-0.000123382
-0.000743503
-0.000490676
-4.2104e-05
0.000281181
-0.000114369
0.000483212
-0.000191003
0.000516739
-0.000265181
0.000501794
-0.000335449
0.000472652
-0.000401453
0.000436091
-0.000463117
0.000393305
-0.000520467
0.000344407
-0.000573507
0.00028896
-0.000622048
0.000225937
-0.000665444
0.000153591
-0.000702139
6.93567e-05
-0.000729578
-3.08599e-05
-0.000741878
-0.000152631
-0.000729967
-0.000300784
-0.000680329
-0.000479183
-0.000576173
-0.000683251
-0.000405676
-0.000880662
-0.000188348
-0.00096083
-0.000679024
-4.7299e-05
0.00032848
-0.000128144
0.000564058
-0.000213123
0.000601717
-0.000294767
0.000583438
-0.000371775
0.00054966
-0.000444109
0.000508425
-0.000512093
0.000461289
-0.00057624
0.000408554
-0.000637153
0.000349873
-0.000695378
0.000284163
-0.000751149
0.000209362
-0.000803866
0.000122073
-0.000852248
1.75228e-05
-0.000890301
-0.000114578
-0.000907526
-0.00028356
-0.000884915
-0.000501794
-0.0007939
-0.000774266
-0.000605318
-0.00106924
-0.000320443
-0.00124571
-0.000999467
-5.38816e-05
0.000382361
-0.000144951
0.000655127
-0.000239302
0.000696068
-0.000328866
0.000673002
-0.000412647
0.000633441
-0.000491055
0.000586832
-0.000564916
0.00053515
-0.000635346
0.000478984
-0.000703715
0.000418242
-0.000771613
0.000352061
-0.000840735
0.000278484
-0.000912515
0.000193853
-0.000986884
9.18924e-05
-0.0010624
-3.90601e-05
-0.00112944
-0.000216525
-0.00116581
-0.000465426
-0.00112952
-0.000810552
-0.000960616
-0.00123815
-0.000597372
-0.00160895
-0.00159684
-6.27036e-05
0.000445065
-0.000166139
0.000758563
-0.000270875
0.000800804
-0.000368541
0.000770668
-0.000458724
0.000723624
-0.000542449
0.000670558
-0.000621138
0.000613839
-0.000696551
0.000554397
-0.000770883
0.000492574
-0.000846918
0.000428096
-0.000928212
0.000359777
-0.00101914
0.000284783
-0.0011246
0.000197346
-0.00124971
8.60509e-05
-0.00139366
-7.25663e-05
-0.00154021
-0.000318883
-0.00163904
-0.000711723
-0.0015668
-0.00131038
-0.00111354
-0.00206222
-0.00271038
-7.55506e-05
0.000520616
-0.000194309
0.000877321
-0.000310017
0.000916512
-0.000415291
0.000875942
-0.000510945
0.000819278
-0.000598717
0.000758329
-0.000680562
0.000695685
-0.000758813
0.000632647
-0.000836415
0.000570176
-0.000917307
0.000508987
-0.00100712
0.000449592
-0.00111416
0.000391817
-0.00125039
0.000333583
-0.00143146
0.000267113
-0.00167562
0.000171602
-0.00198895
-5.55314e-06
-0.00231746
-0.000383218
-0.00240295
-0.00122489
-0.00176899
-0.00269618
-0.00447937
-9.20727e-05
0.000612688
-0.000230066
0.00101531
-0.000358766
0.00104521
-0.000472525
0.000989701
-0.000572401
0.000919154
-0.000661666
0.000847594
-0.000743648
0.000777667
-0.000821305
0.000710304
-0.000897717
0.000646588
-0.000976865
0.000588136
-0.00106526
0.000537987
-0.00117427
0.00050083
-0.00132403
0.000483339
-0.0015468
0.000489884
-0.0018865
0.000511297
-0.00236708
0.000475029
-0.00290662
0.000156329
-0.00302318
-0.00110833
-0.0020651
-0.00365425
-0.00654447
-0.000152601
0.000765289
-0.000303168
0.00116588
-0.000429269
0.00117131
-0.000537344
0.00109778
-0.000634782
0.00101659
-0.000723623
0.000936435
-0.000805271
0.000859315
-0.000880954
0.000785987
-0.000952786
0.00071842
-0.00102382
0.000659173
-0.0011002
0.000614359
-0.00119256
0.000593196
-0.00132307
0.000613852
-0.00152681
0.00069362
-0.00185987
0.000844362
-0.00231087
0.000926024
-0.00280548
0.000650936
-0.00283706
-0.00107674
-0.0017795
-0.00471181
-0.00832397
-0.000107626
0.000872915
-0.000325076
0.00138333
-0.000497451
0.00134369
-0.000631406
0.00123173
-0.000734804
0.00111999
-0.000815978
0.00101761
-0.000881749
0.000925085
-0.000936127
0.000840366
-0.000982111
0.000764404
-0.00102034
0.000697402
-0.0010524
0.000646418
-0.00108056
0.000621354
-0.00111511
0.000648405
-0.00116739
0.000745903
-0.00128578
0.000962747
-0.0014439
0.00108415
-0.0016785
0.000885531
-0.00173693
-0.00101832
-0.00110654
-0.0053422
-0.00943052
-0.000391706
0.00126462
-0.000513143
0.00150477
-0.000624796
0.00145534
-0.000726346
0.00133328
-0.000785154
0.0011788
-0.000811366
0.00104382
-0.00081523
0.000928949
-0.000801557
0.000826692
-0.000777
0.000739848
-0.000739968
0.00066037
-0.000693498
0.000599947
-0.000627878
0.000555734
-0.000538198
0.000558725
-0.000395443
0.000603148
-0.00017563
0.000742933
8.92826e-05
0.000819239
0.000479647
0.000495167
0.000470111
-0.00100878
0.000309287
-0.00518137
-0.00912123
-0.0013124
0.00257702
-0.00125198
0.00144435
-0.00100794
0.00121131
-0.000664646
0.000989983
-0.000304024
0.000818177
5.00365e-05
0.000689761
0.000382529
0.000596457
0.000690184
0.000519037
0.000973443
0.000456588
0.00123019
0.000403626
0.00147506
0.000355075
0.00170538
0.000325409
0.00196441
0.0002997
0.00226861
0.000298951
0.00272083
0.000290706
0.00331688
0.000223198
0.00391489
-0.000102848
0.00397679
-0.00107068
0.00254547
-0.00375005
-0.00657576
0.00257702
0.00402137
0.00523267
0.00622266
0.00704083
0.0077306
0.00832705
0.00884609
0.00930268
0.0097063
0.0100614
0.0103868
0.0106865
0.0109854
0.0112761
0.0114993
0.0113965
0.0103258
0.00657576
)
;

boundaryField
{
    movingWall
    {
        type            calculated;
        value           uniform 0;
    }
    fixedWalls
    {
        type            calculated;
        value           uniform 0;
    }
    frontAndBack
    {
        type            empty;
        value           nonuniform List<scalar> 0();
    }
}


// ************************************************************************* //
