/*--------------------------------*- C++ -*----------------------------------*\
  =========                 |
  \\      /  F ield         | OpenFOAM: The Open Source CFD Toolbox
   \\    /   O peration     | Website:  https://openfoam.org
    \\  /    A nd           | Version:  10
     \\/     M anipulation  |
\*---------------------------------------------------------------------------*/
FoamFile
{
    format      ascii;
    class       volVectorField;
    location    "3.85";
    object      U;
}
// * * * * * * * * * * * * * * * * * * * * * * * * * * * * * * * * * * * * * //

dimensions      [0 1 -1 0 0 0 0];

internalField   nonuniform List<vector> 
400
(
(-0.000124052 0.000120678 0)
(-0.000862339 0.000335897 0)
(-0.00202079 0.000383153 0)
(-0.0031008 0.000379195 0)
(-0.00414447 0.000361903 0)
(-0.005117 0.000337591 0)
(-0.00599446 0.000305834 0)
(-0.00675472 0.000265256 0)
(-0.00737354 0.000214568 0)
(-0.00782513 0.000152755 0)
(-0.008083 7.92834e-05 0)
(-0.00812089 -5.42346e-06 0)
(-0.00791476 -0.000101116 0)
(-0.007446 -0.000204816 0)
(-0.00670492 -0.00031206 0)
(-0.00569375 -0.000416452 0)
(-0.00443601 -0.000508161 0)
(-0.00300064 -0.000568188 0)
(-0.00136783 -0.000539452 0)
(-0.000241959 -0.000254212 0)
(-0.000353018 0.000866729 0)
(-0.00175552 0.00170203 0)
(-0.00375207 0.00186852 0)
(-0.00562033 0.00182671 0)
(-0.00740579 0.00171829 0)
(-0.00904957 0.00157018 0)
(-0.0105088 0.00138437 0)
(-0.0117461 0.00115898 0)
(-0.0127236 0.000892098 0)
(-0.0134036 0.000582534 0)
(-0.0137488 0.000230323 0)
(-0.0137254 -0.000163024 0)
(-0.013303 -0.000589667 0)
(-0.0124593 -0.00103778 0)
(-0.0111867 -0.00148969 0)
(-0.00949492 -0.00192023 0)
(-0.00742592 -0.00229162 0)
(-0.00508135 -0.00253006 0)
(-0.00244842 -0.00242642 0)
(-0.000518947 -0.00134954 0)
(-0.00042338 0.00208811 0)
(-0.0020468 0.00373769 0)
(-0.00432583 0.00404617 0)
(-0.00645204 0.00393608 0)
(-0.008479 0.003683 0)
(-0.0103416 0.00334167 0)
(-0.011993 0.00291903 0)
(-0.0133926 0.00241443 0)
(-0.0144994 0.00182661 0)
(-0.015273 0.00115537 0)
(-0.0156743 0.000402711 0)
(-0.0156628 -0.000426028 0)
(-0.0152018 -0.00131691 0)
(-0.0142657 -0.00224626 0)
(-0.0128409 -0.0031785 0)
(-0.0109321 -0.00406323 0)
(-0.00858013 -0.00482562 0)
(-0.00589654 -0.00531828 0)
(-0.00286353 -0.00513404 0)
(-0.000617046 -0.00302678 0)
(-0.000449006 0.00332052 0)
(-0.00218076 0.00581522 0)
(-0.00461249 0.00626609 0)
(-0.00687789 0.00608498 0)
(-0.00904072 0.00568739 0)
(-0.011034 0.00515537 0)
(-0.0128104 0.00450004 0)
(-0.0143293 0.00372125 0)
(-0.0155487 0.00281744 0)
(-0.0164261 0.00178803 0)
(-0.0169184 0.000635536 0)
(-0.0169807 -0.000631257 0)
(-0.0165666 -0.00199702 0)
(-0.0156353 -0.003429 0)
(-0.0141591 -0.00487563 0)
(-0.0121285 -0.00626058 0)
(-0.00957407 -0.0074666 0)
(-0.00661377 -0.00826177 0)
(-0.00322394 -0.00801622 0)
(-0.000695424 -0.00480306 0)
(-0.000472503 0.00463119 0)
(-0.00231299 0.00802929 0)
(-0.00490425 0.00863158 0)
(-0.00731825 0.0083777 0)
(-0.00962965 0.00783237 0)
(-0.0117701 0.00710647 0)
(-0.0136934 0.00621541 0)
(-0.0153595 0.00515903 0)
(-0.0167265 0.00393454 0)
(-0.0177496 0.00253921 0)
(-0.0183809 0.000973169 0)
(-0.018568 -0.000756679 0)
(-0.018251 -0.00263419 0)
(-0.0173697 -0.00462167 0)
(-0.0158718 -0.00665482 0)
(-0.0137205 -0.00863057 0)
(-0.0109238 -0.0103804 0)
(-0.00760358 -0.0115651 0)
(-0.00373058 -0.0112873 0)
(-0.000808767 -0.00683154 0)
(-0.00050296 0.00602774 0)
(-0.00247974 0.0104003 0)
(-0.0052701 0.0111667 0)
(-0.00787013 0.0108394 0)
(-0.0103674 0.0101447 0)
(-0.0126924 0.00922432 0)
(-0.014801 0.00809829 0)
(-0.0166552 0.00676592 0)
(-0.0182141 0.0052218 0)
(-0.0194321 0.00345869 0)
(-0.0202567 0.00147057 0)
(-0.0206273 -0.000742759 0)
(-0.0204669 -0.00317224 0)
(-0.0196877 -0.0057817 0)
(-0.0182022 -0.00849915 0)
(-0.0159296 -0.0111955 0)
(-0.0128345 -0.0136413 0)
(-0.00903111 -0.0153564 0)
(-0.0044801 -0.0151031 0)
(-0.000983792 -0.00922438 0)
(-0.000541889 0.00753141 0)
(-0.00268862 0.0129644 0)
(-0.00572485 0.0139097 0)
(-0.00855281 0.0135076 0)
(-0.0112762 0.012661 0)
(-0.0138249 0.011546 0)
(-0.0161582 0.0101877 0)
(-0.0182423 0.00858451 0)
(-0.0200399 0.00672701 0)
(-0.0215066 0.00460054 0)
(-0.0225876 0.00218824 0)
(-0.0232154 -0.000524245 0)
(-0.0232941 -0.00354382 0)
(-0.0227016 -0.00684946 0)
(-0.0213004 -0.0103738 0)
(-0.0189412 -0.0139692 0)
(-0.01551 -0.0173366 0)
(-0.0110826 -0.0198098 0)
(-0.00559704 -0.0196903 0)
(-0.00126 -0.012161 0)
(-0.000589787 0.00916811 0)
(-0.00294303 0.0157651 0)
(-0.00627486 0.0169051 0)
(-0.00937284 0.0164238 0)
(-0.0123613 0.0154206 0)
(-0.0151698 0.01411 0)
(-0.0177639 0.0125234 0)
(-0.020117 0.0106586 0)
(-0.022199 0.00850135 0)
(-0.0239716 0.00602665 0)
(-0.0253821 0.00320083 0)
(-0.0263596 -1.46523e-05 0)
(-0.0267926 -0.00364882 0)
(-0.0265202 -0.0077233 0)
(-0.0253391 -0.0121975 0)
(-0.0229988 -0.0169259 0)
(-0.0192498 -0.0215419 0)
(-0.0140573 -0.0251414 0)
(-0.00730971 -0.0253659 0)
(-0.00172043 -0.0159284 0)
(-0.000647847 0.0109657 0)
(-0.00324808 0.0188491 0)
(-0.00692857 0.0201981 0)
(-0.0103379 0.0196282 0)
(-0.0136269 0.0184594 0)
(-0.0167262 0.01695 0)
(-0.0196104 0.01514 0)
(-0.0222649 0.0130281 0)
(-0.0246723 0.0105951 0)
(-0.0268076 0.00780396 0)
(-0.0286292 0.00459956 0)
(-0.0300649 0.000910597 0)
(-0.031003 -0.00333802 0)
(-0.0312534 -0.00823279 0)
(-0.0305273 -0.0138028 0)
(-0.0284356 -0.0199524 0)
(-0.0245141 -0.0262778 0)
(-0.0184677 -0.0315922 0)
(-0.0100782 -0.0325754 0)
(-0.00255484 -0.0210253 0)
(-0.000718878 0.0129561 0)
(-0.00361346 0.0222677 0)
(-0.00770059 0.023835 0)
(-0.0114614 0.0231582 0)
(-0.0150812 0.0218074 0)
(-0.0184936 0.020092 0)
(-0.0216867 0.0180635 0)
(-0.0246627 0.0157242 0)
(-0.027424 0.0130517 0)
(-0.0299679 0.00999782 0)
(-0.032276 0.0064841 0)
(-0.0342977 0.00239907 0)
(-0.0359369 -0.00240457 0)
(-0.0369903 -0.00811196 0)
(-0.0370956 -0.0148842 0)
(-0.0356942 -0.0227685 0)
(-0.0320077 -0.0314199 0)
(-0.0252258 -0.0393638 0)
(-0.0148985 -0.0419426 0)
(-0.00422087 -0.0284031 0)
(-0.000808807 0.01518 0)
(-0.00405704 0.0260802 0)
(-0.00861635 0.0278642 0)
(-0.0127665 0.0270475 0)
(-0.0167396 0.0254868 0)
(-0.0204749 0.0235503 0)
(-0.0239795 0.0213057 0)
(-0.0272779 0.0187621 0)
(-0.0303999 0.0158986 0)
(-0.0333764 0.0126599 0)
(-0.0362293 0.00894656 0)
(-0.0389553 0.00460103 0)
(-0.0415169 -0.000609409 0)
(-0.043744 -0.00698279 0)
(-0.0452464 -0.0149261 0)
(-0.0453193 -0.0247841 0)
(-0.0427917 -0.0364882 0)
(-0.0360042 -0.0483896 0)
(-0.0239929 -0.0541906 0)
(-0.00786113 -0.0401147 0)
(-0.000929826 0.0176943 0)
(-0.00461135 0.0303592 0)
(-0.00971905 0.0323362 0)
(-0.0142921 0.0313236 0)
(-0.018629 0.0295075 0)
(-0.02268 0.0273231 0)
(-0.0264766 0.0248578 0)
(-0.0300714 0.0221327 0)
(-0.033528 0.0191352 0)
(-0.0369219 0.0158135 0)
(-0.0403375 0.0120615 0)
(-0.0438576 0.00769221 0)
(-0.0475283 0.00239888 0)
(-0.0513327 -0.00427854 0)
(-0.05502 -0.0130671 0)
(-0.0578688 -0.02484 0)
(-0.0583685 -0.0401855 0)
(-0.0537207 -0.0577018 0)
(-0.0419965 -0.0698958 0)
(-0.0162641 -0.0604523 0)
(-0.00110799 0.0205856 0)
(-0.00533662 0.0351989 0)
(-0.0110806 0.0372975 0)
(-0.0161004 0.0359983 0)
(-0.0207942 0.0338601 0)
(-0.0251302 0.0313865 0)
(-0.0291718 0.0286847 0)
(-0.0330024 0.0257928 0)
(-0.0367212 0.0227159 0)
(-0.0404524 0.0194216 0)
(-0.0443533 0.015822 0)
(-0.0486229 0.0117368 0)
(-0.0535012 0.00682542 0)
(-0.059265 0.000467822 0)
(-0.0660672 -0.00832215 0)
(-0.0736086 -0.0211002 0)
(-0.0804021 -0.0397585 0)
(-0.082454 -0.0644569 0)
(-0.0751328 -0.0889813 0)
(-0.0326556 -0.0980386 0)
(-0.00139714 0.0239732 0)
(-0.00635827 0.0407673 0)
(-0.0128293 0.0428913 0)
(-0.0182847 0.0411826 0)
(-0.0232968 0.0385888 0)
(-0.0278609 0.0357215 0)
(-0.0320722 0.0327258 0)
(-0.0360417 0.0296569 0)
(-0.0399002 0.0265389 0)
(-0.0438165 0.0233757 0)
(-0.0480232 0.0201467 0)
(-0.0528583 0.0167679 0)
(-0.0588164 0.0129989 0)
(-0.0665809 0.00826062 0)
(-0.0770802 0.00139351 0)
(-0.0913257 -0.00985976 0)
(-0.108545 -0.0295388 0)
(-0.122297 -0.0634526 0)
(-0.120895 -0.112464 0)
(-0.049136 -0.167566 0)
(-0.00181337 0.0283264 0)
(-0.00763669 0.0466155 0)
(-0.0150523 0.0483307 0)
(-0.020989 0.0458989 0)
(-0.026307 0.0428953 0)
(-0.0309959 0.0397909 0)
(-0.0352346 0.0366496 0)
(-0.0391832 0.0334999 0)
(-0.0429878 0.0303923 0)
(-0.0468159 0.0273973 0)
(-0.0509112 0.0246104 0)
(-0.0556915 0.0221277 0)
(-0.061898 0.0200032 0)
(-0.0707764 0.0180444 0)
(-0.0843442 0.0153894 0)
(-0.10536 0.00911458 0)
(-0.133875 -0.00830864 0)
(-0.155661 -0.057259 0)
(-0.152972 -0.154302 0)
(-0.0431247 -0.276439 0)
(-0.00372112 0.0323185 0)
(-0.0114815 0.0559282 0)
(-0.0185959 0.0572206 0)
(-0.0244059 0.0542707 0)
(-0.0294876 0.0501113 0)
(-0.0341227 0.0458759 0)
(-0.0383453 0.0418124 0)
(-0.0422316 0.0380172 0)
(-0.0458641 0.0345674 0)
(-0.0493662 0.0315647 0)
(-0.0529437 0.0292245 0)
(-0.0569657 0.027908 0)
(-0.0621641 0.0282234 0)
(-0.0698937 0.0307798 0)
(-0.0826866 0.0355864 0)
(-0.103142 0.0376891 0)
(-0.132166 0.0234264 0)
(-0.148498 -0.0540834 0)
(-0.144144 -0.216253 0)
(-0.0213561 -0.386891 0)
(-0.00151352 0.0463913 0)
(-0.00976897 0.0589142 0)
(-0.0219115 0.0581106 0)
(-0.0284083 0.053331 0)
(-0.0345105 0.0495304 0)
(-0.0390285 0.0460161 0)
(-0.0426223 0.0426709 0)
(-0.0455654 0.039414 0)
(-0.0480234 0.0363394 0)
(-0.0500701 0.0335674 0)
(-0.051748 0.0314921 0)
(-0.0530938 0.0306305 0)
(-0.0543892 0.0322138 0)
(-0.0560075 0.0372059 0)
(-0.0600883 0.0468616 0)
(-0.0653222 0.0520426 0)
(-0.0845351 0.0377726 0)
(-0.0876358 -0.0599925 0)
(-0.0945558 -0.267789 0)
(-0.00363494 -0.465515 0)
(-0.0113342 0.0366674 0)
(-0.0257942 0.0823093 0)
(-0.027016 0.0791158 0)
(-0.0348486 0.0733257 0)
(-0.0383813 0.0656488 0)
(-0.0404205 0.058501 0)
(-0.0409764 0.052134 0)
(-0.0405966 0.0464945 0)
(-0.0395715 0.0415983 0)
(-0.0379162 0.0373788 0)
(-0.0358639 0.0340897 0)
(-0.0329045 0.0323001 0)
(-0.029413 0.0332988 0)
(-0.0230126 0.0381089 0)
(-0.0174029 0.0499849 0)
(0.00140888 0.0578667 0)
(0.00622954 0.0505238 0)
(0.0387147 -0.0447563 0)
(0.00243984 -0.279869 0)
(0.0370063 -0.495332 0)
(-0.0753315 0.0998424 0)
(-0.0602338 0.0630973 0)
(-0.0613588 0.0615158 0)
(-0.0411927 0.0545452 0)
(-0.0244494 0.0473042 0)
(-0.006075 0.0415833 0)
(0.0110078 0.037101 0)
(0.0272519 0.0330625 0)
(0.0417141 0.0297603 0)
(0.0557225 0.0264027 0)
(0.0676999 0.0240552 0)
(0.080517 0.0217234 0)
(0.0905914 0.021351 0)
(0.108707 0.0214094 0)
(0.115661 0.0226597 0)
(0.160948 0.0210389 0)
(0.160681 -0.00461696 0)
(0.220132 -0.0629656 0)
(0.158606 -0.257117 0)
(0.125958 -0.444032 0)
(0.120478 0.140258 0)
(0.154248 0.086695 0)
(0.233567 0.0645577 0)
(0.28915 0.0494478 0)
(0.332594 0.0389023 0)
(0.370793 0.0311536 0)
(0.401329 0.0257179 0)
(0.43171 0.0215359 0)
(0.452298 0.0181701 0)
(0.479134 0.0159325 0)
(0.490678 0.0130703 0)
(0.517724 0.0122286 0)
(0.519547 0.00977649 0)
(0.551788 0.00949514 0)
(0.541513 0.00829355 0)
(0.580675 0.00394945 0)
(0.550168 -0.00264209 0)
(0.568543 -0.0299382 0)
(0.436865 -0.0820349 0)
(0.277964 -0.155713 0)
)
;

boundaryField
{
    movingWall
    {
        type            fixedValue;
        value           uniform (1 0 0);
    }
    fixedWalls
    {
        type            noSlip;
    }
    frontAndBack
    {
        type            empty;
    }
}


// ************************************************************************* //
