/*--------------------------------*- C++ -*----------------------------------*\
  =========                 |
  \\      /  F ield         | OpenFOAM: The Open Source CFD Toolbox
   \\    /   O peration     | Website:  https://openfoam.org
    \\  /    A nd           | Version:  10
     \\/     M anipulation  |
\*---------------------------------------------------------------------------*/
FoamFile
{
    format      ascii;
    class       volScalarField;
    location    "2.575";
    object      p;
}
// * * * * * * * * * * * * * * * * * * * * * * * * * * * * * * * * * * * * * //

dimensions      [0 2 -2 0 0 0 0];

internalField   nonuniform List<scalar> 
400
(
-2.96299e-09
-2.55093e-05
9.58092e-06
7.78278e-05
0.000183066
0.000324695
0.00050102
0.000709653
0.000947167
0.00120891
0.00148883
0.00177942
0.0020717
0.00235536
0.00261911
0.00285115
0.00303971
0.00317431
0.00325357
0.00323906
2.45229e-05
-2.43271e-06
3.23025e-05
9.7984e-05
0.000199481
0.000336657
0.000508128
0.000711801
0.000944534
0.00120193
0.00147814
0.00176571
0.00205601
0.00233867
0.00260229
0.00283487
0.00302435
0.00316015
0.0032416
0.00322584
-1.33214e-05
-4.39242e-05
-1.00433e-05
5.46875e-05
0.000155677
0.00029303
0.000465643
0.00067174
0.000908468
0.00117167
0.00145571
0.00175354
0.00205583
0.00235195
0.00262985
0.00287659
0.0030788
0.00322441
0.00331227
0.00329413
-8.90138e-05
-0.000123249
-9.02483e-05
-2.62322e-05
7.49157e-05
0.000213713
0.000389505
0.000600988
0.000845769
0.00112007
0.00141852
0.00173409
0.00205752
0.00237739
0.00268043
0.00295209
0.00317687
0.00334014
0.00343969
0.00342058
-0.000207629
-0.000246226
-0.000214189
-0.000150653
-4.85941e-05
9.30692e-05
0.000274293
0.000494423
0.000751692
0.00104289
0.00136302
0.0017052
0.00206001
0.0024153
0.00275628
0.00306594
0.00332556
0.00351649
0.00363451
0.00361543
-0.000371103
-0.000415274
-0.000384529
-0.000321655
-0.000218452
-7.30932e-05
0.000115193
0.000346621
0.000620277
0.00093373
0.00128263
0.00166045
0.00205778
0.00246168
0.00285555
0.00321921
0.00352935
0.00376125
0.00390717
0.00388952
-0.000581618
-0.000632906
-0.000604161
-0.000542737
-0.000438914
-0.000289896
-9.38397e-05
0.00015061
0.000443689
0.000784067
0.00116838
0.00159077
0.00204235
0.00250958
0.00297405
0.00341175
0.00379311
0.00408451
0.00427197
0.00425867
-0.000842041
-0.000902398
-0.000876858
-0.000818452
-0.000715499
-0.000563962
-0.000360616
-0.000102639
0.000211697
0.000582562
0.00100804
0.00148353
0.00200138
0.00254816
0.0031041
0.0036412
0.00412174
0.00449939
0.00474901
0.00474638
-0.00115574
-0.00122762
-0.00120712
-0.00115428
-0.00105491
-0.000903384
-0.000694732
-0.000424306
-8.85106e-05
0.000314762
0.000785624
0.00132148
0.00191714
0.00256054
0.00323195
0.00390012
0.00451812
0.00502169
0.00536562
0.00538793
-0.00152649
-0.00161299
-0.00160013
-0.00155663
-0.00146504
-0.00131776
-0.00110763
-0.000827792
-0.000472458
-3.71679e-05
0.000480813
0.00108179
0.00176471
0.00252102
0.00333396
0.00417162
0.00497872
0.00566829
0.006158
0.00623818
-0.00195852
-0.00206348
-0.00206173
-0.00203282
-0.00195506
-0.00181827
-0.0016126
-0.00132867
-0.000958279
-0.000494376
6.8887e-05
0.000735573
0.00151024
0.00239154
0.00337082
0.0044215
0.00548462
0.00645186
0.00717146
0.00738698
-0.00245666
-0.00258474
-0.00259854
-0.00259121
-0.00253548
-0.00241773
-0.00222478
-0.00194446
-0.00156625
-0.00108074
-0.000478829
0.00024959
0.0011096
0.00211763
0.00327952
0.00458528
0.00598551
0.00736462
0.0084568
0.00898739
-0.00302721
-0.00318319
-0.00321789
-0.00324131
-0.00321842
-0.00313078
-0.00296106
-0.00269413
-0.00231772
-0.00182134
-0.00119429
-0.0004235
0.000508006
0.00162643
0.00296463
0.0045485
0.00636801
0.00833955
0.0100444
0.0112987
-0.00368103
-0.00386837
-0.00392852
-0.0039942
-0.00401809
-0.0039744
-0.00384028
-0.00359757
-0.00323346
-0.00273867
-0.00210383
-0.00131384
-0.000340639
0.000831354
0.00228712
0.00411195
0.00638682
0.00915724
0.0118358
0.0148404
-0.00441431
-0.00464895
-0.0047416
-0.0048666
-0.00495414
-0.00496937
-0.00488342
-0.0046749
-0.00433171
-0.00384937
-0.00322681
-0.00246157
-0.00154304
-0.000418099
0.00102211
0.00289943
0.00550277
0.00928204
0.0133704
0.0197557
-0.00537613
-0.00548536
-0.00560831
-0.00579855
-0.00599157
-0.00611163
-0.00610631
-0.00594653
-0.00562658
-0.00515519
-0.00454754
-0.00381355
-0.00295201
-0.00191243
-0.000611066
0.000951923
0.0031825
0.00738851
0.0121313
0.0240773
-0.00613548
-0.00684779
-0.00692858
-0.00730832
-0.00756411
-0.00770138
-0.00768525
-0.00750447
-0.00716338
-0.00667966
-0.00609219
-0.00544433
-0.00480098
-0.00423022
-0.00384249
-0.00349252
-0.00364607
0.000137045
0.00401193
0.0252755
-0.00915238
-0.00703856
-0.00727864
-0.00759193
-0.00815169
-0.00861377
-0.00887758
-0.00888253
-0.00863414
-0.00816512
-0.00756478
-0.00690383
-0.00634933
-0.00604766
-0.00636607
-0.00732588
-0.0103555
-0.00899391
-0.00540939
0.0289097
-0.00684816
-0.0103403
-0.0103404
-0.0114836
-0.0119774
-0.012196
-0.0120723
-0.0116753
-0.0110626
-0.0102702
-0.0094422
-0.00865893
-0.00815389
-0.00824154
-0.00957134
-0.0120711
-0.0194794
-0.0182399
-0.008861
0.0519413
-0.0297585
-0.00639496
-0.0068214
-0.00775219
-0.00877545
-0.00968131
-0.0102995
-0.010498
-0.0103473
-0.00980722
-0.00924834
-0.00846948
-0.0082108
-0.00794495
-0.00881997
-0.00883796
-0.00731495
0.00958489
0.0574324
0.168651
)
;

boundaryField
{
    movingWall
    {
        type            zeroGradient;
    }
    fixedWalls
    {
        type            zeroGradient;
    }
    frontAndBack
    {
        type            empty;
    }
}


// ************************************************************************* //
