/*--------------------------------*- C++ -*----------------------------------*\
  =========                 |
  \\      /  F ield         | OpenFOAM: The Open Source CFD Toolbox
   \\    /   O peration     | Website:  https://openfoam.org
    \\  /    A nd           | Version:  10
     \\/     M anipulation  |
\*---------------------------------------------------------------------------*/
FoamFile
{
    format      ascii;
    class       volVectorField;
    location    "1.825";
    object      U;
}
// * * * * * * * * * * * * * * * * * * * * * * * * * * * * * * * * * * * * * //

dimensions      [0 1 -1 0 0 0 0];

internalField   nonuniform List<vector> 
496
(
(9.9445 0.0656956 0)
(9.9546 -0.155404 0)
(10.2147 -0.113491 0)
(10.7863 -0.21023 0)
(9.94986 0.521293 0)
(9.8737 -1.26975 0)
(10.2319 -0.244728 0)
(10.845 -1.13295 0)
(10.6203 1.32731 0)
(9.20168 -3.0329 0)
(11.2655 -0.225857 0)
(10.7747 -4.2574 0)
(11.517 1.8451 0)
(8.52167 -2.94383 0)
(12.3642 1.18913 0)
(10.3995 -6.86591 0)
(11.4512 -0.237968 3.17442e-18)
(12.1712 -0.210075 -5.97351e-19)
(11.655 -0.356318 -6.15198e-19)
(12.4993 0.20688 1.89221e-18)
(13.1596 -2.19506 -2.56311e-18)
(13.1958 -0.656846 -1.29427e-18)
(12.909 -5.08125 -3.49379e-17)
(15.6653 -4.66775 6.37875e-17)
(12.7286 -0.216554 0)
(13.0415 -0.218972 0)
(13.2351 -0.147741 0)
(13.2544 -0.0532975 0)
(13.1083 0.174575 0)
(13.5278 -0.133669 0)
(13.8509 -0.444085 0)
(13.986 -0.542967 0)
(12.8766 0.538645 0)
(12.8816 0.784712 0)
(13.2615 0.613628 0)
(13.6236 0.313218 0)
(10.4795 -2.44154 0)
(9.54973 -1.85831 0)
(8.7243 -1.41033 0)
(7.67581 0.23359 0)
(13.304 0.0709244 0)
(13.2396 0.119508 0)
(13.3018 0.160568 0)
(13.3128 0.227053 0)
(13.4733 0.264212 0)
(13.4896 0.319554 0)
(13.5423 0.301925 0)
(13.3751 0.33442 0)
(13.2849 0.379374 0)
(13.0525 0.434256 0)
(12.8835 0.477857 0)
(12.5844 0.469756 0)
(12.3337 0.491408 0)
(12.0422 0.458643 0)
(11.8921 0.480412 0)
(11.743 0.425726 0)
(11.7222 0.38005 0)
(11.6139 0.328649 0)
(11.6938 0.308623 0)
(11.6431 0.331183 0)
(11.7887 0.344287 0)
(11.649 0.403175 0)
(11.6199 0.413896 0)
(11.3322 0.467306 0)
(11.1741 0.481448 0)
(10.9077 0.493269 0)
(10.7493 0.500311 0)
(10.5772 0.452955 0)
(10.464 0.438701 0)
(10.2894 0.369509 0)
(10.246 0.345187 0)
(10.0378 0.296631 0)
(10.1808 0.239266 0)
(9.9791 0.218846 0)
(10.2275 0.12567 0)
(10.0644 0.139524 0)
(10.3012 0.0480075 0)
(10.3401 0.0803945 0)
(10.4996 0.0290197 0)
(10.7234 0.076784 0)
(14.0328 -0.505643 0)
(13.9613 -0.458105 0)
(14.0719 -0.388893 0)
(14.1372 -0.307932 0)
(14.3052 -0.304427 0)
(14.3222 -0.233998 0)
(14.3829 -0.268697 0)
(14.342 -0.186051 0)
(14.3171 -0.118968 0)
(14.1632 0.00919814 0)
(13.9817 0.0818408 0)
(13.7397 0.0702018 0)
(13.5095 0.0530119 0)
(13.2862 -0.0754626 0)
(13.1363 -0.110282 0)
(12.9753 -0.239994 0)
(12.9438 -0.278257 0)
(12.9009 -0.336214 0)
(13.0078 -0.36611 0)
(13.0407 -0.267893 0)
(13.1909 -0.244707 0)
(13.1373 -0.105548 0)
(13.1111 -0.112471 0)
(12.9178 -0.0185889 0)
(12.779 -0.0422829 0)
(12.5653 -0.0574387 0)
(12.4507 -0.0591079 0)
(12.2609 -0.165099 0)
(12.2288 -0.115935 0)
(12.0256 -0.249026 0)
(12.0542 -0.165333 0)
(11.8501 -0.248606 0)
(11.9601 -0.199916 0)
(11.8458 -0.189732 0)
(11.9763 -0.254352 0)
(11.9742 -0.172767 0)
(12.0555 -0.324326 0)
(12.2285 -0.238538 0)
(12.2722 -0.343877 0)
(12.5608 -0.294663 0)
(13.8694 -0.00327607 0)
(13.8613 0.0143673 0)
(13.9768 0.0501874 0)
(13.8454 0.0251881 0)
(13.919 0.00191609 0)
(13.9016 0.132772 0)
(13.9766 0.136617 0)
(13.9746 0.289166 0)
(14.1624 0.440415 0)
(14.0735 0.620606 0)
(14.208 0.81419 0)
(13.9326 0.873392 0)
(14.0118 0.985454 0)
(13.7327 0.834254 0)
(13.7892 0.747435 0)
(13.5799 0.473779 0)
(13.5594 0.284638 0)
(13.4152 0.139773 0)
(13.3892 0.0382074 0)
(13.5111 0.166985 0)
(13.5769 0.163678 0)
(13.7188 0.35958 0)
(13.8264 0.439947 0)
(13.8233 0.591844 0)
(13.9287 0.74946 0)
(13.7345 0.736035 0)
(13.876 0.90204 0)
(13.5557 0.709554 0)
(13.6929 0.809942 0)
(13.355 0.582949 0)
(13.3808 0.548357 0)
(13.1809 0.439646 0)
(13.0475 0.226536 0)
(13.0994 0.225867 0)
(12.7539 -0.136456 0)
(12.9425 -0.0575476 0)
(12.4892 -0.371906 0)
(12.6537 -0.229866 0)
(12.379 -0.363461 0)
(12.4305 -0.265328 0)
(8.32307 0.0341297 0)
(8.48157 -0.118858 0)
(8.54942 -0.253008 0)
(7.04841 -0.328292 0)
(7.89805 -0.245462 0)
(7.40706 -0.40883 0)
(7.43449 -0.156013 0)
(7.57088 -0.308552 0)
(7.78238 -0.0981389 0)
(8.35523 -0.0447652 0)
(8.39722 0.0576999 0)
(8.7708 0.21415 0)
(8.82895 0.3397 0)
(8.73704 0.403459 0)
(8.73523 0.347551 0)
(8.14653 0.225592 0)
(8.28875 0.111648 0)
(7.902 -0.0468859 0)
(8.21434 -0.158343 0)
(8.37995 -0.292088 0)
(8.66422 -0.329356 0)
(9.30504 -0.30256 0)
(9.55508 -0.25512 0)
(10.2874 -0.159095 0)
(10.5078 -0.108624 0)
(10.9863 -0.0323963 0)
(11.2917 -0.0334328 0)
(11.3129 -0.0321695 0)
(11.6509 -0.0112192 0)
(11.3045 -0.0255336 0)
(11.3839 0.0207425 0)
(10.9232 0.0263228 0)
(10.4003 0.0929216 0)
(10.0615 0.143008 0)
(8.89503 0.151216 0)
(8.90979 0.305279 0)
(7.5338 0.170887 0)
(7.96611 0.20268 0)
(7.06175 0.00301039 0)
(7.51431 -0.240939 0)
(12.5689 0.361706 -1.07779e-17)
(7.81714 -0.580574 -1.81059e-17)
(11.737 -0.289662 3.17309e-17)
(5.02033 -4.44557 -8.54405e-17)
(11.879 -0.545989 1.08504e-17)
(8.27955 0.769854 1.83606e-17)
(11.057 0.0583699 -3.20766e-17)
(5.06081 4.62774 8.58185e-17)
(-7.60461 1.68526 0)
(8.9101 4.64747 0)
(-10.9505 -0.0323024 0)
(5.96901 -1.61358 0)
(1.05164 -4.22593 3.44417e-17)
(-1.34955 2.65234 0)
(4.58072 -0.713683 0)
(-1.12274 -3.92926 0)
(-0.796772 0.389341 0)
(0.900046 1.05856 0)
(-1.955 -0.52906 0)
(1.11792 -0.53707 0)
(0.178539 0.896986 0)
(-3.22053 0.626629 0)
(1.42872 -0.826814 0)
(-1.18963 0.149735 0)
(-0.224417 0.280673 0)
(0.179677 0.258901 0)
(0.14623 0.251238 0)
(0.832566 0.438299 0)
(0.855753 0.644714 0)
(1.19236 0.780001 0)
(1.29411 0.703922 0)
(1.3692 0.455218 0)
(1.45658 0.196248 0)
(1.95663 -0.095806 0)
(2.09201 -0.409633 0)
(2.25413 -0.516974 0)
(2.6683 -0.615394 0)
(2.81283 -0.543355 0)
(3.17025 -0.338769 0)
(3.22703 -0.208514 0)
(3.39028 0.0508224 0)
(3.56554 0.293822 0)
(3.38809 0.445782 0)
(3.55426 0.549692 0)
(3.52317 0.676638 0)
(3.49438 0.729388 0)
(3.49174 0.837389 0)
(3.51198 0.941923 0)
(3.45731 0.936154 0)
(3.46383 0.9897 0)
(3.37415 0.819143 0)
(3.63607 0.706493 0)
(3.53181 0.297578 0)
(3.73427 0.183297 0)
(3.78984 -0.425258 0)
(4.17974 -0.624247 0)
(-0.865832 2.54219 0)
(0.126738 0.172159 0)
(1.15128 -0.631566 0)
(-0.474074 -0.870652 0)
(-2.28222 2.19263 0)
(2.43645 -1.14693 0)
(-0.295312 -1.94506 0)
(-0.678217 0.488092 0)
(0.57911 -1.23672 0)
(0.746958 -0.865908 0)
(0.504274 -0.41911 0)
(1.12485 -0.23187 0)
(1.28937 0.00105314 0)
(1.96021 0.0693679 0)
(2.30806 0.0832099 0)
(2.52581 0.0615011 0)
(2.77728 -0.16098 0)
(3.20082 -0.489209 0)
(2.95289 -0.61985 0)
(3.06184 -0.742073 0)
(2.96132 -0.816248 0)
(2.72773 -0.719474 0)
(2.76374 -0.581111 0)
(2.67084 -0.362469 0)
(2.51209 -0.216421 0)
(2.79039 -0.0714283 0)
(2.53043 0.0940477 0)
(2.89182 0.102034 0)
(2.91727 0.156245 0)
(3.16137 0.229518 0)
(3.27202 0.312933 0)
(3.84112 0.35807 0)
(3.9649 0.350819 0)
(4.44152 0.443623 0)
(4.94222 0.3544 0)
(5.24542 0.24912 0)
(5.78751 0.0380481 0)
(5.67894 -0.0567097 0)
(6.35244 -0.379549 0)
(5.83758 -0.590854 0)
(12.7051 -1.53807 0)
(7.54346 2.56996 0)
(13.6412 -0.780086 0)
(9.62449 6.48572 0)
(11.0668 -1.43883 0)
(8.82815 3.02843 0)
(11.3136 -0.0508696 0)
(10.5578 4.22227 0)
(10.1447 -0.522914 0)
(9.70695 1.34583 0)
(10.3305 0.299532 0)
(10.7527 1.21313 0)
(9.98235 -0.0987909 0)
(9.90139 0.220269 0)
(10.2393 0.105525 0)
(10.7708 0.2188 0)
(13.7781 5.32681 3.40908e-17)
(15.1453 4.35426 -6.38387e-17)
(12.882 1.94314 0)
(12.946 0.551603 0)
(11.6908 0.471881 0)
(12.4624 -0.116393 0)
(11.4967 0.224863 0)
(12.1935 0.156704 0)
(11.8142 2.757 0)
(11.3263 1.8761 0)
(8.08676 0.939629 0)
(12.1276 0.660251 0)
(12.2582 -1.02305 0)
(12.5965 -1.01534 0)
(12.6923 -0.449996 0)
(13.2608 -0.588898 0)
(13.0434 -0.0434751 0)
(13.464 0.273571 0)
(13.6937 0.594631 0)
(13.7926 0.690398 0)
(12.7587 0.195005 0)
(13.0373 0.112854 0)
(13.248 0.0705962 0)
(13.2699 -0.0349594 0)
(9.64137 0.974068 0)
(10.6174 0.774659 0)
(9.91214 0.628827 0)
(11.1654 0.650349 0)
(10.3369 0.786715 0)
(10.0086 0.233128 0)
(11.2572 0.248645 0)
(10.2693 0.142686 0)
(10.4534 -0.102776 0)
(10.2688 -0.132047 0)
(9.98545 -0.0570093 0)
(9.74713 -0.00324568 0)
(9.6406 0.0855363 0)
(9.88427 0.111868 0)
(9.9849 0.101189 0)
(10.5012 0.0470887 0)
(10.5288 -0.101002 0)
(11.112 -0.248622 0)
(11.0464 -0.308899 0)
(11.1591 -0.27846 0)
(10.8227 -0.203637 0)
(10.4933 -0.14852 0)
(10.0899 -0.0978279 0)
(9.59905 -0.0531569 0)
(9.25173 0.047548 0)
(8.97867 0.099421 0)
(8.74994 0.16288 0)
(8.8382 0.129537 0)
(8.80938 0.159905 0)
(9.03686 0.118327 0)
(9.28305 0.194835 0)
(9.29405 0.190534 0)
(10.1444 0.169399 0)
(9.84425 0.243344 0)
(11.0471 0.0960858 0)
(10.8341 0.130878 0)
(11.8097 -0.117533 0)
(12.0013 -0.0837937 0)
(12.3375 -0.33651 0)
(13.0507 -0.3716 0)
(13.447 -0.318028 0)
(13.5372 -0.275406 0)
(13.6662 -0.2315 0)
(13.6782 -0.367106 0)
(13.7838 -0.468719 0)
(13.6574 -0.517149 0)
(13.7153 -0.782907 0)
(13.5057 -0.749269 0)
(13.4369 -0.807474 0)
(13.3297 -0.68464 0)
(13.2488 -0.555196 0)
(13.2633 -0.404426 0)
(13.1983 -0.256891 0)
(13.3415 -0.310047 0)
(13.3546 -0.330806 0)
(13.4567 -0.577622 0)
(13.3345 -0.708786 0)
(13.2678 -0.891661 0)
(13.0923 -0.91413 0)
(12.9636 -0.786182 0)
(12.8622 -0.621103 0)
(12.761 -0.295824 0)
(12.7037 -0.0881869 0)
(12.6815 0.150062 0)
(12.6482 0.259968 0)
(12.7519 0.220238 0)
(12.6624 0.254952 0)
(12.8679 -0.0137032 0)
(12.7613 0.0693481 0)
(13.0321 -0.2116 0)
(12.9317 -0.0983261 0)
(13.1562 -0.266031 0)
(13.1581 -0.345209 0)
(13.341 -0.308059 0)
(13.4089 -0.672025 0)
(13.4376 -0.425173 0)
(13.4877 -0.981773 0)
(13.1166 -0.715599 0)
(13.1373 -1.0846 0)
(12.2463 -1.11282 0)
(13.9215 0.672159 0)
(13.9397 0.588888 0)
(14.0208 0.500204 0)
(14.0351 0.414456 0)
(14.1004 0.310989 0)
(14.0315 0.281305 0)
(13.9971 0.203022 0)
(13.8149 0.241572 0)
(13.7394 0.228814 0)
(13.5519 0.26249 0)
(13.5301 0.25525 0)
(13.4172 0.241709 0)
(13.4772 0.248044 0)
(13.3992 0.183566 0)
(13.4072 0.14105 0)
(13.2213 -0.00407401 0)
(13.1169 -0.0517484 0)
(12.8995 -0.0750196 0)
(12.7683 -0.0283824 0)
(12.5134 0.087375 0)
(12.3768 0.119492 0)
(12.2301 0.239401 0)
(12.3122 0.233699 0)
(12.3591 0.323601 0)
(12.527 0.317542 0)
(12.5984 0.277827 0)
(12.6999 0.243436 0)
(12.8147 0.10347 0)
(12.8587 0.13094 0)
(12.9979 0.00728032 0)
(12.8506 0.0857 0)
(12.9607 -0.00926298 0)
(12.7206 0.0440705 0)
(12.8271 -0.0190717 0)
(12.5916 0.000828181 0)
(12.5338 -0.0104279 0)
(12.3919 -0.00541639 0)
(12.1108 0.0641601 0)
(12.1908 0.146777 0)
(11.813 0.281383 0)
(13.3756 -0.121252 0)
(13.3997 -0.219812 0)
(13.4832 -0.282332 0)
(13.4721 -0.327486 0)
(13.5195 -0.402643 0)
(13.4343 -0.406466 0)
(13.3692 -0.471886 0)
(13.1714 -0.443913 0)
(13.0396 -0.473667 0)
(12.8136 -0.457273 0)
(12.7689 -0.463671 0)
(12.6242 -0.458212 0)
(12.6656 -0.427003 0)
(12.4968 -0.449197 0)
(12.4656 -0.42235 0)
(12.1715 -0.470294 0)
(12.0375 -0.449031 0)
(11.7008 -0.485431 0)
(11.5599 -0.484898 0)
(11.2563 -0.459564 0)
(11.1514 -0.418847 0)
(10.9594 -0.311588 0)
(11.0536 -0.267715 0)
(11.0314 -0.184771 0)
(11.2451 -0.159618 0)
(11.1755 -0.146249 0)
(11.3727 -0.129134 0)
(11.2788 -0.176206 0)
(11.4476 -0.145653 0)
(11.3224 -0.233171 0)
(11.2894 -0.205885 0)
(11.1618 -0.287309 0)
(10.9753 -0.299912 0)
(10.9993 -0.328062 0)
(10.6827 -0.397459 0)
(10.6882 -0.361001 0)
(10.2804 -0.517295 0)
(10.1458 -0.446132 0)
(9.91056 -0.608757 0)
(9.62767 -0.541852 0)
)
;

boundaryField
{
    inlet
    {
        type            fixedValue;
        value           uniform (10 0 0);
    }
    outlet
    {
        type            zeroGradient;
    }
    obstacle
    {
        type            noSlip;
    }
    upperWall
    {
        type            noSlip;
    }
    lowerWall
    {
        type            noSlip;
    }
    frontAndBack
    {
        type            empty;
    }
}


// ************************************************************************* //
