/*--------------------------------*- C++ -*----------------------------------*\
  =========                 |
  \\      /  F ield         | OpenFOAM: The Open Source CFD Toolbox
   \\    /   O peration     | Website:  https://openfoam.org
    \\  /    A nd           | Version:  10
     \\/     M anipulation  |
\*---------------------------------------------------------------------------*/
FoamFile
{
    format      ascii;
    class       volScalarField;
    location    "1.675";
    object      p;
}
// * * * * * * * * * * * * * * * * * * * * * * * * * * * * * * * * * * * * * //

dimensions      [0 2 -2 0 0 0 0];

internalField   nonuniform List<scalar> 
400
(
5.04777e-09
1.8904e-06
8.04898e-05
0.000212878
0.000399237
0.000636057
0.000918463
0.00124044
0.00159478
0.0019731
0.00236588
0.00276263
0.00315197
0.00352197
0.00386052
0.00415578
0.00439666
0.00457369
0.00468276
0.00469584
-3.24024e-06
-2.42336e-06
7.6146e-05
0.000207721
0.000393079
0.000628947
0.000910606
0.00123218
0.00158657
0.00196547
0.00235936
0.00275788
0.00314951
0.00352221
0.0038637
0.0041619
0.00440546
0.00458472
0.00469585
0.00470847
-8.37073e-05
-8.45524e-05
-4.42252e-06
0.000130061
0.000319935
0.000561993
0.000851565
0.0011828
0.00154858
0.00194053
0.00234913
0.00276357
0.00317194
0.00356172
0.00391995
0.00423373
0.00449074
0.00468034
0.00479818
0.00481087
-0.000225057
-0.000227333
-0.000144197
-4.27395e-06
0.000193816
0.00044696
0.000750534
0.0010987
0.00148428
0.00189876
0.00233228
0.00277384
0.00321076
0.00362967
0.00401648
0.00435691
0.00463704
0.00484455
0.00497406
0.00498841
-0.000431544
-0.000435456
-0.000347874
-0.000199942
1.01646e-05
0.00027945
0.000603344
0.000976008
0.00139018
0.00183715
0.00230672
0.00278741
0.0032657
0.00372701
0.00415569
0.00453544
0.00484997
0.00508435
0.00523153
0.00524899
-0.000707932
-0.000713986
-0.00062059
-0.000462171
-0.000236309
5.41599e-05
0.000404745
0.000809617
0.00126144
0.00175127
0.00226854
0.00280128
0.00333496
0.00385354
0.00433934
0.00477337
0.00513597
0.00540841
0.00558089
0.00560336
-0.00106007
-0.00106905
-0.00096861
-0.000797391
-0.000552174
-0.000235566
0.000148063
0.000592928
0.00109164
0.00163509
0.00221231
0.00281094
0.00341538
0.00400805
0.00456879
0.00507519
0.00550299
0.00582795
0.00603596
0.00606619
-0.00149541
-0.00150845
-0.00139995
-0.00121385
-0.000945859
-0.000598273
-0.000175281
0.000317416
0.000872441
0.00148063
0.00213078
0.00280989
0.00350193
0.0041878
0.00484459
0.00544566
0.00596074
0.0063577
0.00661549
0.00665794
-0.00202304
-0.00204183
-0.00192452
-0.00172177
-0.00142784
-0.00104458
-0.000575961
-2.75802e-05
0.000593241
0.00127744
0.00201419
0.00278886
0.00358677
0.00438741
0.00516529
0.00588887
0.00652029
0.00701631
0.00734455
0.00740697
-0.0026539
-0.00268086
-0.00255445
-0.0023337
-0.00201093
-0.00158744
-0.00106695
-0.00045503
0.000241003
0.00101219
0.0018478
0.00273486
0.00365819
0.00459742
0.00552556
0.00640647
0.00719294
0.00782674
0.00825637
0.00835326
-0.00340107
-0.00343968
-0.00330447
-0.00306492
-0.00271072
-0.00224246
-0.00166375
-0.000980313
-0.000199662
0.000669363
0.00161671
0.00263128
0.00369928
0.00480211
0.0059134
0.00699428
0.0079876
0.0088159
0.00939461
0.00955504
-0.00428024
-0.00433552
-0.00419275
-0.00393423
-0.0035462
-0.00302837
-0.00238456
-0.00162119
-0.000746426
0.000230832
0.00130154
0.0024566
0.00368636
0.0049768
0.00630599
0.00763667
0.00890507
0.0100124
0.0108151
0.0111009
-0.00531086
-0.00538968
-0.00524204
-0.00496517
-0.0045408
-0.00396762
-0.00325044
-0.00239748
-0.00141865
-0.00032363
0.000879365
0.00218423
0.00358767
0.00508448
0.00666355
0.00829775
0.00992539
0.0114389
0.0125857
0.013132
-0.00652088
-0.00663102
-0.00648237
-0.00618813
-0.00572402
-0.00508719
-0.00428513
-0.00333005
-0.00223567
-0.001014
0.000326851
0.0017842
0.00336328
0.00507271
0.00692104
0.0089061
0.0109869
0.0130937
0.0147822
0.0158781
-0.00791556
-0.00808575
-0.00794957
-0.00764279
-0.00713388
-0.00641959
-0.00551456
-0.0044389
-0.00321374
-0.00185609
-0.000375743
0.00122572
0.0029684
0.00487438
0.00698204
0.00933598
0.0119515
0.0149032
0.0174139
0.0197587
-0.00975086
-0.00984545
-0.00971684
-0.00939119
-0.00882357
-0.00800566
-0.00696661
-0.00574132
-0.00436292
-0.00285616
-0.0012346
0.000504675
0.00237294
0.00442473
0.00673132
0.00940392
0.0125466
0.0165956
0.0201807
0.0252348
-0.0113332
-0.0119514
-0.0118536
-0.0115353
-0.0108811
-0.00990072
-0.00866962
-0.00724718
-0.00568221
-0.00400964
-0.00225545
-0.000439923
0.00141231
0.00347907
0.00574106
0.00845329
0.0115606
0.0171648
0.0218636
0.0324735
-0.0155234
-0.0137905
-0.0140467
-0.013632
-0.0129649
-0.0118973
-0.0105129
-0.00889075
-0.00711425
-0.00524653
-0.00332558
-0.00135136
0.000708335
0.00281903
0.00517311
0.00780079
0.0106864
0.0170085
0.0236367
0.0409516
-0.0160202
-0.0194107
-0.0190171
-0.0186764
-0.0174091
-0.0154851
-0.0133245
-0.0110855
-0.00886135
-0.00668251
-0.00458252
-0.00258202
-0.000761086
0.000874131
0.0017134
0.00347439
0.00268977
0.0103125
0.0128566
0.0512035
-0.0386099
-0.0168066
-0.0176072
-0.0174554
-0.0163933
-0.0149092
-0.0131592
-0.0111767
-0.00906955
-0.00693527
-0.00486106
-0.00281627
-0.00100375
0.000930372
0.00224013
0.0050672
0.00838362
0.0235582
0.0528699
0.126696
)
;

boundaryField
{
    movingWall
    {
        type            zeroGradient;
    }
    fixedWalls
    {
        type            zeroGradient;
    }
    frontAndBack
    {
        type            empty;
    }
}


// ************************************************************************* //
