/*--------------------------------*- C++ -*----------------------------------*\
  =========                 |
  \\      /  F ield         | OpenFOAM: The Open Source CFD Toolbox
   \\    /   O peration     | Website:  https://openfoam.org
    \\  /    A nd           | Version:  10
     \\/     M anipulation  |
\*---------------------------------------------------------------------------*/
FoamFile
{
    format      ascii;
    class       volScalarField;
    location    "8.825";
    object      p;
}
// * * * * * * * * * * * * * * * * * * * * * * * * * * * * * * * * * * * * * //

dimensions      [0 2 -2 0 0 0 0];

internalField   nonuniform List<scalar> 
8000
(
1.83939e-06
-2.30402e-06
5.2476e-05
0.000151488
0.000301995
0.000506722
0.00076893
0.00109201
0.00147859
0.00192945
0.00244216
0.00300921
0.003616
0.00423896
0.00484485
0.00539233
0.00583684
0.00614174
0.00630745
0.00628654
6.04603e-06
1.37656e-06
5.89824e-05
0.00015831
0.000307504
0.000509571
0.000768021
0.00108644
0.00146768
0.00191286
0.00242008
0.00298259
0.00358646
0.00420817
0.0048147
0.00536594
0.00581385
0.00611922
0.00628498
0.00624727
-7.30897e-05
-8.20135e-05
-2.67938e-05
6.80091e-05
0.000211068
0.000405496
0.000655235
0.000964593
0.0013375
0.00177657
0.0022818
0.00284853
0.00346509
0.00411011
0.00474924
0.00533698
0.00581716
0.00613983
0.00630895
0.00624365
-0.000221306
-0.000233278
-0.000182143
-9.46547e-05
3.84222e-05
0.000220436
0.000455955
0.000750324
0.00110906
0.00153713
0.00203759
0.00260954
0.00324505
0.00392511
0.00461494
0.00526116
0.00579867
0.00615524
0.00633426
0.00622426
-0.000446191
-0.00046117
-0.000416386
-0.000339533
-0.000220883
-5.68345e-05
0.000157847
0.000429662
0.000766004
0.00117473
0.00166305
0.00223536
0.00288977
0.00361255
0.00437085
0.00510458
0.00573218
0.006147
0.00634745
0.00616706
-0.000747598
-0.000765856
-0.000729709
-0.000667072
-0.000567941
-0.000428649
-0.000243522
-5.1363e-06
0.000295599
0.000669432
0.00112822
0.00168325
0.00234129
0.00309855
0.00393036
0.00477722
0.00553286
0.00604572
0.0062954
0.00600902
-0.00112275
-0.00114475
-0.00111952
-0.00107494
-0.00100108
-0.000894645
-0.000750165
-0.000560087
-0.000314497
-6.76351e-07
0.00039716
0.000897378
0.00151844
0.00227191
0.00315073
0.00410815
0.00502789
0.00570109
0.00606778
0.0056582
-0.00156704
-0.00159334
-0.0015811
-0.00155836
-0.00151579
-0.00145116
-0.00136025
-0.00123684
-0.00107228
-0.000854454
-0.000566643
-0.00018685
0.000312281
0.000960721
0.00178009
0.00276601
0.00384866
0.00479018
0.00543437
0.00500573
-0.00207438
-0.00210538
-0.00210755
-0.00210969
-0.00210373
-0.00208952
-0.00206551
-0.00202888
-0.00197524
-0.00189782
-0.00178604
-0.00162362
-0.00138618
-0.00103822
-0.000531982
0.000198439
0.00124026
0.00255918
0.00386753
0.00391417
-0.00263767
-0.00267341
-0.00268999
-0.0027182
-0.00275201
-0.00279454
-0.00284859
-0.00291719
-0.00300409
-0.003114
-0.00325226
-0.00342486
-0.00363745
-0.0038841
-0.00411825
-0.00416681
-0.00351155
-0.00171628
0.000889513
0.00222745
-0.0032498
-0.00328965
-0.00331822
-0.0033706
-0.00344323
-0.00354406
-0.00368168
-0.00386713
-0.00411594
-0.00445113
-0.00490465
-0.00552277
-0.00637019
-0.00749773
-0.00886642
-0.0101121
-0.010018
-0.00718015
-0.00267938
-8.1497e-05
-0.00390533
-0.00394745
-0.00398149
-0.00405111
-0.00415551
-0.00430892
-0.00452635
-0.00482773
-0.00524132
-0.00581392
-0.00660867
-0.00772174
-0.00927953
-0.0113484
-0.0138283
-0.015849
-0.015529
-0.0108999
-0.00536928
-0.00177309
-0.0046052
-0.00464554
-0.00467342
-0.00474693
-0.00486813
-0.00505888
-0.00534048
-0.00574087
-0.00629337
-0.00707694
-0.00816736
-0.00971294
-0.0118515
-0.0146002
-0.0176807
-0.0198386
-0.0192164
-0.0137097
-0.00848599
-0.00292433
-0.00535756
-0.00538306
-0.0053816
-0.00543452
-0.00554908
-0.00575375
-0.0060737
-0.00654826
-0.00717208
-0.00811181
-0.00941668
-0.0112419
-0.0137397
-0.0168752
-0.020268
-0.0228497
-0.0235663
-0.0190656
-0.013603
-0.0046469
-0.00619197
-0.00619746
-0.00614371
-0.00615147
-0.00622487
-0.00640235
-0.00671343
-0.00718694
-0.00787836
-0.00886679
-0.010259
-0.0121931
-0.014826
-0.0181105
-0.0218274
-0.0251444
-0.0281567
-0.024482
-0.0184886
-0.00595515
-0.00729137
-0.00706616
-0.0068677
-0.00673384
-0.00672522
-0.00685882
-0.00715064
-0.00761887
-0.00831459
-0.00929398
-0.0106717
-0.0125524
-0.0150873
-0.0182241
-0.0219001
-0.025138
-0.0285088
-0.0245067
-0.0190423
-0.00278409
-0.00817079
-0.00825528
-0.00789934
-0.00772338
-0.00756918
-0.00755434
-0.0077061
-0.00804862
-0.00864185
-0.00951788
-0.0107834
-0.0125006
-0.0147971
-0.0175168
-0.0207286
-0.0230851
-0.0254936
-0.0200272
-0.0146439
0.00847838
-0.012065
-0.00920897
-0.00850404
-0.00771969
-0.00740356
-0.00734329
-0.00752099
-0.00788869
-0.00848731
-0.00932707
-0.0105161
-0.0120604
-0.0140986
-0.0163274
-0.018862
-0.0200701
-0.0211172
-0.013205
-0.0049583
0.0319847
-0.0115904
-0.0124678
-0.0109073
-0.0103125
-0.00948359
-0.00894411
-0.00867432
-0.0086755
-0.008996
-0.00960979
-0.0106316
-0.0119955
-0.0139368
-0.0159937
-0.0184538
-0.0189783
-0.0183502
-0.00569037
0.0118647
0.075375
-0.0363472
-0.0108927
-0.00912028
-0.00754483
-0.00669735
-0.00650524
-0.00670915
-0.00708281
-0.00772041
-0.00852903
-0.00975138
-0.01114
-0.0130189
-0.0144878
-0.0156711
-0.0128092
-0.00502758
0.0225259
0.0695269
0.175631
9.5906e-06
-8.35727e-06
4.35562e-05
0.000140996
0.000291335
0.000496533
0.000759645
0.00108418
0.00147303
0.00192731
0.00244503
0.00301913
0.00363529
0.00426986
0.00488894
0.00544896
0.00590187
0.00620703
0.00636628
0.00632143
2.56391e-05
8.40657e-06
6.58524e-05
0.000164867
0.000314248
0.000516509
0.000775063
0.00109356
0.00147496
0.00192062
0.00242897
0.00299374
0.00360139
0.00422812
0.00484357
0.00540253
0.00585542
0.00615965
0.00632092
0.00625955
-4.85019e-05
-7.2451e-05
-1.70893e-05
7.75113e-05
0.000220813
0.000415402
0.000665113
0.000974299
0.001347
0.00178609
0.002292
0.00286069
0.00348112
0.00413241
0.00478159
0.005379
0.00586576
0.00618689
0.00634973
0.00625423
-0.000192957
-0.000221403
-0.000169903
-8.2504e-05
5.09283e-05
0.000233187
0.00046873
0.000762937
0.00112143
0.00154944
0.00205057
0.00262479
0.00326518
0.00395396
0.00465441
0.00531592
0.00586347
0.00621853
0.00638822
0.00623758
-0.000416006
-0.000448379
-0.000403173
-0.000326334
-0.000207156
-4.26071e-05
0.000172443
0.000444541
0.000781194
0.00119056
0.0016805
0.00225653
0.00291825
0.00365303
0.00442746
0.00518434
0.00582881
0.00624382
0.0064303
0.00618966
-0.00071675
-0.000753065
-0.000716516
-0.000653817
-0.000553932
-0.000413755
-0.000227698
1.17315e-05
0.000313774
0.00068953
0.00115159
0.00171264
0.00238168
0.0031565
0.00400934
0.00489328
0.00568505
0.00620967
0.00644275
0.00605202
-0.00109183
-0.00113251
-0.00110695
-0.00106226
-0.000987441
-0.000879721
-0.000733675
-0.000541629
-0.000293489
2.38556e-05
0.000427012
0.000935971
0.0015722
0.00235172
0.00327231
0.00427673
0.0052686
0.00599929
0.00636442
0.0057543
-0.00153645
-0.00158212
-0.00156972
-0.00154693
-0.00150329
-0.00143707
-0.00134402
-0.00121776
-0.00104942
-0.00082648
-0.00053155
-0.000141291
0.000374497
0.00105135
0.00191898
0.00298264
0.00419355
0.00533447
0.00606383
0.00527449
-0.00204436
-0.00209567
-0.00209799
-0.00210029
-0.00209335
-0.00207742
-0.00205091
-0.00201078
-0.00195246
-0.00186899
-0.00174971
-0.00157856
-0.00133226
-0.000977164
-0.000457151
0.000356604
0.00170101
0.00364751
0.00521777
0.00472957
-0.00260831
-0.00266572
-0.00268289
-0.0027117
-0.00274483
-0.0027858
-0.0028373
-0.00290214
-0.0029841
-0.00308826
-0.00322175
-0.00339579
-0.00363067
-0.00394946
-0.00431424
-0.00441533
-0.00323543
-0.000117317
0.00289047
0.00408375
-0.00322095
-0.00328457
-0.00331434
-0.00336792
-0.00344046
-0.00354015
-0.00367545
-0.00385736
-0.00410183
-0.00443328
-0.00488907
-0.00552973
-0.00645967
-0.0078149
-0.0095663
-0.0112066
-0.0107628
-0.00660978
-0.00171501
0.00220551
-0.00387655
-0.00394508
-0.00398072
-0.00405215
-0.00415729
-0.0043102
-0.00452572
-0.00482392
-0.0052347
-0.00580628
-0.0066138
-0.00777768
-0.00949299
-0.0119993
-0.0152265
-0.0183665
-0.0189062
-0.0138027
-0.00752552
-0.00102065
-0.00457518
-0.00464693
-0.00467759
-0.00475405
-0.0048768
-0.00506712
-0.00534616
-0.00574204
-0.00629532
-0.00707645
-0.00818939
-0.00979414
-0.0121425
-0.0154743
-0.0197053
-0.0238031
-0.0256517
-0.0204337
-0.0141319
-0.0053739
-0.00531882
-0.00538176
-0.00538159
-0.00543805
-0.00555606
-0.005762
-0.00607923
-0.00654027
-0.00718824
-0.00811112
-0.00942593
-0.0113002
-0.0140161
-0.0177689
-0.0225984
-0.0274538
-0.0312433
-0.027083
-0.0216143
-0.0104462
-0.00613785
-0.0062021
-0.00615132
-0.00616684
-0.00624356
-0.00642104
-0.00672713
-0.00719676
-0.00788048
-0.00885071
-0.0102344
-0.012194
-0.0150067
-0.0188129
-0.0238253
-0.0289916
-0.0344247
-0.0309234
-0.0267174
-0.0131607
-0.00717588
-0.00701532
-0.0068269
-0.00670449
-0.00670956
-0.00685258
-0.00714627
-0.00761189
-0.00829421
-0.00924196
-0.0105955
-0.0124672
-0.0150997
-0.018555
-0.0230835
-0.0275055
-0.0322173
-0.0285331
-0.0269541
-0.00906465
-0.00788171
-0.00818896
-0.0078377
-0.0077143
-0.00757267
-0.00756443
-0.00771032
-0.00804341
-0.0086143
-0.00943671
-0.0106619
-0.0123367
-0.0146492
-0.0175143
-0.0212124
-0.0242758
-0.0275107
-0.0232599
-0.0221193
0.00524636
-0.0115937
-0.00890736
-0.00823807
-0.00748676
-0.00724921
-0.00725043
-0.00745892
-0.00783374
-0.00841469
-0.00920775
-0.0103465
-0.0118359
-0.0138733
-0.0162191
-0.0191217
-0.0209431
-0.0224172
-0.0164912
-0.0098756
0.0329806
-0.00896512
-0.0115332
-0.0103331
-0.0100948
-0.0094319
-0.00898931
-0.00875403
-0.00874299
-0.00902205
-0.00956044
-0.0105018
-0.011778
-0.0137138
-0.0158794
-0.0188042
-0.0201677
-0.020186
-0.00843369
0.0120041
0.0836283
-0.0341363
-0.00903261
-0.00750922
-0.00649343
-0.00600577
-0.00598287
-0.00629832
-0.00672132
-0.00738794
-0.0081674
-0.00936373
-0.0107209
-0.0126145
-0.0142474
-0.0156291
-0.0132805
-0.00526881
0.0246101
0.0833208
0.206086
2.8626e-05
4.17986e-06
5.49338e-05
0.000152031
0.000303236
0.000510231
0.00077616
0.00110485
0.00149964
0.00196221
0.00249113
0.00307983
0.00371416
0.00436993
0.00501116
0.00559111
0.00605676
0.00636298
0.00651315
0.00644619
5.35485e-05
2.90413e-05
8.66265e-05
0.000185715
0.000335883
0.000539489
0.000800113
0.00112173
0.00150772
0.00196
0.00247765
0.00305501
0.00367877
0.00432565
0.00496196
0.00554043
0.00600596
0.00631098
0.0064633
0.0063794
-1.4539e-05
-4.7358e-05
8.46286e-06
0.000103173
0.000247195
0.000442965
0.000694539
0.00100666
0.00138388
0.00182982
0.00234576
0.00292858
0.0035681
0.00424404
0.00492008
0.00554361
0.00604788
0.0063699
0.00651894
0.00639124
-0.000153502
-0.000191884
-0.000139677
-5.21129e-05
8.20669e-05
0.00026552
0.000502985
0.000800312
0.00116378
0.00159956
0.00211251
0.00270397
0.00336821
0.00408778
0.0048279
0.0055284
0.00610395
0.00646128
0.00660681
0.00640513
-0.000372443
-0.000415513
-0.000369444
-0.000292359
-0.00017228
-6.2786e-06
0.000211129
0.000487067
0.00082988
0.00124895
0.0017539
0.00235254
0.00304676
0.00382507
0.00465683
0.00547428
0.00616674
0.00658902
0.00673169
0.00640181
-0.000669996
-0.000717621
-0.000680091
-0.000617029
-0.000516003
-0.000373963
-0.000184877
5.94494e-05
0.000369304
0.00075737
0.00123863
0.00182926
0.00254233
0.00337926
0.00431895
0.00529909
0.00617802
0.00672657
0.00687744
0.00631875
-0.00104233
-0.0010949
-0.00106827
-0.00102314
-0.000946974
-0.000837012
-0.000687287
-0.000489293
-0.000231692
0.000100576
0.000527186
0.00107289
0.00176603
0.00262958
0.0036629
0.00483246
0.00598701
0.00678957
0.00699554
0.00608046
-0.00148434
-0.00154254
-0.00152907
-0.00150588
-0.00146087
-0.00139226
-0.00129519
-0.00116239
-0.000983614
-0.000744229
-0.000423427
7.6592e-06
0.000588021
0.00136457
0.00238177
0.00366698
0.00516903
0.00648112
0.00689235
0.00568006
-0.00198954
-0.00205408
-0.00205547
-0.00205763
-0.00204961
-0.00203159
-0.00200132
-0.00195492
-0.00188666
-0.00178779
-0.001645
-0.00143831
-0.00113985
-0.000709542
-6.94268e-05
0.000959252
0.00264193
0.00485682
0.00599372
0.00527132
-0.00255034
-0.00262176
-0.00263829
-0.0026675
-0.00270028
-0.00274002
-0.00278883
-0.00284895
-0.00292356
-0.00301737
-0.00313802
-0.00330074
-0.00354237
-0.00392071
-0.00440105
-0.00451083
-0.00316961
0.000378464
0.00335488
0.00473757
-0.00315884
-0.00323739
-0.00326702
-0.00332188
-0.00339524
-0.00349515
-0.00362966
-0.00380966
-0.00405173
-0.00438245
-0.00484638
-0.00552382
-0.00657332
-0.0082351
-0.0105246
-0.012437
-0.0120573
-0.00703933
-0.0018208
0.00246299
-0.00380784
-0.00389242
-0.00392841
-0.00400221
-0.00410984
-0.00426499
-0.0044822
-0.00478205
-0.00519671
-0.00577926
-0.00662016
-0.00787763
-0.00983838
-0.0128855
-0.0169849
-0.0210602
-0.0215826
-0.0159164
-0.00934544
-0.00216928
-0.0044961
-0.00458627
-0.00461827
-0.00469867
-0.00482578
-0.00502025
-0.00530301
-0.0057032
-0.00626562
-0.00706503
-0.00822632
-0.00996254
-0.0126224
-0.0166019
-0.0218492
-0.0268916
-0.0292766
-0.0242847
-0.0175988
-0.00828457
-0.00522034
-0.00530351
-0.00530473
-0.0053667
-0.00549183
-0.00570477
-0.00602803
-0.00649447
-0.00715528
-0.00809545
-0.0094554
-0.0114607
-0.0144736
-0.0188057
-0.0245733
-0.030149
-0.0342801
-0.0303719
-0.0242924
-0.0135683
-0.00601105
-0.00610179
-0.00605223
-0.00607676
-0.00616302
-0.00634964
-0.00666293
-0.00713819
-0.00782766
-0.00880972
-0.0102263
-0.0122716
-0.0153176
-0.0194849
-0.0251104
-0.0303941
-0.0352896
-0.0313997
-0.0269163
-0.0148686
-0.00699073
-0.00686216
-0.00667515
-0.00656388
-0.00658364
-0.00674107
-0.00704591
-0.00751764
-0.00819988
-0.0091521
-0.0105062
-0.0124098
-0.0151581
-0.0187989
-0.0235567
-0.0277044
-0.0313001
-0.0272458
-0.0250973
-0.00944357
-0.00756596
-0.00793478
-0.00759585
-0.00750472
-0.00738642
-0.00739888
-0.00755835
-0.00789817
-0.00846118
-0.00928558
-0.0104787
-0.0121477
-0.0144993
-0.0174456
-0.0212199
-0.0240396
-0.0263041
-0.0217989
-0.0187954
0.00543258
-0.0112575
-0.00859559
-0.00787307
-0.0071239
-0.00692166
-0.00696239
-0.00720029
-0.00759403
-0.00817522
-0.00895083
-0.0100543
-0.0115194
-0.0135432
-0.0159429
-0.0188514
-0.0205474
-0.0211718
-0.01507
-0.00615
0.0341148
-0.00789266
-0.0107245
-0.00963218
-0.00950785
-0.0089261
-0.0085559
-0.00836588
-0.00838641
-0.00866867
-0.00919493
-0.0100918
-0.0113439
-0.0132556
-0.0155164
-0.018515
-0.0199103
-0.019646
-0.00741867
0.0152821
0.0866994
-0.0334114
-0.00817619
-0.00663698
-0.00575609
-0.00538957
-0.00543537
-0.00578462
-0.00623252
-0.00689304
-0.00766153
-0.00881061
-0.0101586
-0.0120334
-0.0137645
-0.015207
-0.0128665
-0.00407158
0.0270059
0.089348
0.213741
5.08488e-05
2.26342e-05
7.28947e-05
0.000170193
0.000322814
0.000532356
0.000802135
0.00113634
0.00153882
0.00201184
0.00255455
0.00316086
0.00381661
0.00449689
0.00516344
0.00576578
0.00624583
0.00655436
0.00669658
0.00661177
8.09803e-05
5.23078e-05
0.000110131
0.000209689
0.000361225
0.00056706
0.000831001
0.00115739
0.00155013
0.00201171
0.00254191
0.00313561
0.0037794
0.00445044
0.00511195
0.00571312
0.00619326
0.00650007
0.00664367
0.00654202
1.73419e-05
-2.05254e-05
3.57361e-05
0.000130953
0.00027633
0.000474269
0.000729098
0.00104599
0.00143012
0.00188585
0.00241535
0.00301636
0.00367953
0.00438421
0.00509148
0.00574401
0.00626713
0.00659032
0.00672489
0.00657155
-0.000117237
-0.000161295
-0.000108469
-2.03348e-05
0.000115266
0.000300972
0.000541853
0.000844288
0.00121529
0.00166204
0.00219065
0.00280379
0.00349675
0.00425322
0.00503533
0.00577642
0.00637926
0.00673648
0.00685532
0.00661303
-0.000332602
-0.000381821
-0.000335013
-0.000257272
-0.00013561
3.29114e-05
0.000254185
0.000535976
0.000887552
0.0013196
0.0018435
0.00246918
0.00320053
0.0040275
0.00491726
0.00579383
0.00652796
0.00694869
0.00704097
0.00664372
-0.000627178
-0.000681359
-0.000643
-0.000579187
-0.000476372
-0.000331459
-0.000137925
0.000113189
0.000433291
0.000836698
0.00134071
0.00196462
0.00272496
0.00362465
0.00464667
0.00571399
0.00665855
0.00720277
0.00725883
0.00658902
-0.000996862
-0.00105639
-0.0010289
-0.000982963
-0.000904878
-0.000791782
-0.000637157
-0.000431632
-0.000162605
0.000186881
0.000639327
0.00122367
0.00197297
0.00291356
0.00405392
0.00534741
0.00660435
0.00739537
0.00743258
0.00635989
-0.0014363
-0.00150192
-0.00148763
-0.00146374
-0.00141688
-0.00134517
-0.00124317
-0.00110274
-0.000912404
-0.000655598
-0.000308684
0.000161376
0.000799264
0.00165764
0.00277799
0.00421604
0.00585404
0.00715634
0.00732004
0.00596699
-0.00193874
-0.00201127
-0.00201201
-0.00201379
-0.00200432
-0.00198367
-0.00194912
-0.00189608
-0.00181788
-0.00170461
-0.00154137
-0.00130682
-0.000973777
-0.000504844
0.000183524
0.00129729
0.00316133
0.00548062
0.00638411
0.00563381
-0.0024962
-0.00257627
-0.00259248
-0.0026219
-0.00265401
-0.00269218
-0.00273817
-0.0027939
-0.00286246
-0.00294899
-0.00306305
-0.00322661
-0.00349664
-0.00395946
-0.00455457
-0.00468984
-0.00311838
0.000589115
0.00356743
0.00519804
-0.00310018
-0.00318821
-0.00321804
-0.00327396
-0.00334781
-0.00344768
-0.00358151
-0.00376048
-0.00400233
-0.00433672
-0.00481608
-0.00553968
-0.00671144
-0.00863079
-0.0112459
-0.0134298
-0.0129065
-0.00802031
-0.00249307
0.00252116
-0.00374231
-0.00383728
-0.00387402
-0.00394994
-0.00405952
-0.00421647
-0.00443541
-0.00473782
-0.00515823
-0.00575524
-0.0066325
-0.00797683
-0.0101296
-0.0135314
-0.0180929
-0.0223763
-0.0235424
-0.0184264
-0.0114402
-0.00330562
-0.00442005
-0.00452218
-0.00455576
-0.00463959
-0.00477021
-0.00496811
-0.00525439
-0.00565933
-0.00623069
-0.00704883
-0.00825324
-0.0100852
-0.0129479
-0.0172962
-0.0230646
-0.0285391
-0.0315154
-0.0272751
-0.0204739
-0.0105261
-0.00512626
-0.00522292
-0.00522617
-0.00529297
-0.00542349
-0.00564168
-0.00596979
-0.00644133
-0.00711032
-0.00806502
-0.00945744
-0.011533
-0.0147095
-0.0193155
-0.0254843
-0.0312026
-0.0354463
-0.0319938
-0.0264147
-0.0156988
-0.00589084
-0.00599866
-0.00595159
-0.0059837
-0.00607718
-0.00627031
-0.00658845
-0.00706716
-0.00775906
-0.0087458
-0.0101743
-0.0122464
-0.0153819
-0.019678
-0.0254412
-0.0305102
-0.0350063
-0.031177
-0.0278948
-0.0160757
-0.00682229
-0.00671457
-0.00653129
-0.0064303
-0.00646041
-0.00662727
-0.00693861
-0.00741296
-0.00809192
-0.00903855
-0.0103871
-0.0122669
-0.015036
-0.0186819
-0.0233642
-0.0271604
-0.0302352
-0.0265003
-0.0254371
-0.00969189
-0.0073175
-0.00772856
-0.00739235
-0.00732439
-0.00722154
-0.00724681
-0.00741318
-0.00775343
-0.00830685
-0.0091135
-0.0102845
-0.0119191
-0.0142521
-0.017182
-0.0208912
-0.0234985
-0.0254462
-0.0212703
-0.0192741
0.00606182
-0.0109355
-0.00831111
-0.00757754
-0.00684754
-0.00666481
-0.00672684
-0.00697963
-0.00737967
-0.0079532
-0.00871218
-0.00977948
-0.0112097
-0.0132013
-0.015586
-0.0184614
-0.0200767
-0.0205902
-0.0149361
-0.00671104
0.0356275
-0.00730518
-0.0103025
-0.00922936
-0.00916898
-0.00861838
-0.00827567
-0.00810115
-0.00812443
-0.00839631
-0.00889893
-0.0097599
-0.0109787
-0.0128686
-0.0151477
-0.018213
-0.0196941
-0.0195875
-0.00743119
0.0152099
0.0896825
-0.0328415
-0.00759267
-0.00605504
-0.0052394
-0.00493612
-0.00502937
-0.00540813
-0.00587176
-0.00653132
-0.00728485
-0.00840681
-0.00972533
-0.011588
-0.0133206
-0.0147931
-0.0123873
-0.0034811
0.0280925
0.0911546
0.219394
7.46629e-05
4.50864e-05
9.56593e-05
0.00019388
0.000348492
0.000561195
0.000835587
0.00117627
0.00158761
0.00207244
0.00263048
0.00325597
0.00393467
0.00464073
0.00533352
0.0059588
0.00645367
0.00676534
0.00690086
0.00680173
0.000107247
7.6848e-05
0.00013523
0.00023579
0.000389285
0.000598136
0.000866445
0.00119897
0.00160012
0.00207301
0.00261799
0.0032304
0.00389663
0.00459384
0.00528217
0.00590698
0.00640221
0.00671136
0.00684683
0.00673121
4.65382e-05
6.54339e-06
6.34739e-05
0.000159729
0.000307098
0.000508091
0.00076737
0.00109059
0.00148352
0.00195131
0.00249692
0.00311879
0.00380831
0.00454365
0.00528344
0.00596527
0.00650686
0.00683093
0.00695107
0.00677737
-8.48232e-05
-0.000131306
-7.7698e-05
1.15432e-05
0.000149237
0.000338148
0.000583743
0.000892968
0.0012736
0.00173379
0.00228085
0.00291847
0.00364248
0.00443793
0.00526231
0.00604246
0.00666969
0.00702458
0.00711594
0.00684123
-0.000297251
-0.000349122
-0.000301439
-0.000222504
-9.85843e-05
7.34184e-05
0.000299867
0.000589216
0.000951677
0.00139921
0.00194484
0.00260021
0.00337052
0.00424662
0.00519248
0.00612254
0.00688991
0.00730182
0.00734236
0.00689322
-0.00058916
-0.000646185
-0.000606886
-0.000541798
-0.000436553
-0.000287861
-8.86505e-05
0.000170842
0.000503156
0.000924176
0.00145329
0.00211234
0.00292046
0.00388151
0.00497648
0.00611623
0.00710553
0.00762691
0.00759081
0.00684092
-0.000956332
-0.00101891
-0.000990456
-0.000943236
-0.000862649
-0.00074562
-0.000585031
-0.000370636
-8.85923e-05
0.000279799
0.000759402
0.00138224
0.0021841
0.00318921
0.00442039
0.00580479
0.00711735
0.00785947
0.00775048
0.00657025
-0.00139325
-0.00146215
-0.00144699
-0.00142194
-0.00137272
-0.00129724
-0.00118948
-0.00104049
-0.00083761
-0.00056271
-0.000190061
0.000316035
0.00100276
0.00192501
0.00311531
0.00463097
0.00631765
0.00755003
0.00753911
0.00609724
-0.00189293
-0.00196902
-0.00196908
-0.00197005
-0.00195867
-0.0019349
-0.00189551
-0.00183534
-0.00174703
-0.00161998
-0.00143902
-0.00118413
-0.000834193
-0.000363287
0.000306476
0.00140627
0.00325639
0.00553521
0.00639713
0.00570756
-0.00244701
-0.00253097
-0.00254683
-0.002576
-0.00260703
-0.00264321
-0.00268606
-0.0027374
-0.00280048
-0.00288157
-0.00299366
-0.00316824
-0.00348588
-0.00406429
-0.00482542
-0.0051519
-0.00368775
-1.13821e-05
0.0032722
0.00523908
-0.00304641
-0.00313873
-0.00316868
-0.00322513
-0.003299
-0.00339841
-0.00353139
-0.0037096
-0.00395221
-0.00429254
-0.00479185
-0.00556899
-0.00686884
-0.00904779
-0.0120421
-0.0145842
-0.0142647
-0.00949605
-0.0034197
0.00221019
-0.00368183
-0.0037815
-0.00381888
-0.00389623
-0.00400708
-0.00416524
-0.00438563
-0.00469072
-0.00511751
-0.00573002
-0.00664413
-0.0080713
-0.0103958
-0.0141155
-0.0191189
-0.0237543
-0.0252883
-0.0205873
-0.0131448
-0.00437533
-0.00434964
-0.00445713
-0.00449197
-0.00457825
-0.00471134
-0.00491181
-0.00520106
-0.00561045
-0.00619028
-0.00702609
-0.00826864
-0.0101809
-0.0132043
-0.0178144
-0.0239351
-0.0295966
-0.0326931
-0.0288837
-0.0219962
-0.0118653
-0.00504042
-0.00514309
-0.00514811
-0.0052184
-0.00535255
-0.00557434
-0.005906
-0.00638168
-0.00705706
-0.00802375
-0.00944117
-0.0115691
-0.0148481
-0.01959
-0.0259048
-0.0313961
-0.0353025
-0.0320426
-0.0267341
-0.0164432
-0.00578385
-0.00589891
-0.00585382
-0.00589095
-0.00598911
-0.00618641
-0.00650767
-0.00698839
-0.00768159
-0.00867054
-0.0101051
-0.0121905
-0.0153528
-0.0196489
-0.0253438
-0.0299679
-0.0335251
-0.0301167
-0.0270936
-0.0161055
-0.00667994
-0.00658194
-0.00640203
-0.00630834
-0.0063445
-0.00651649
-0.0068309
-0.00730538
-0.00798054
-0.00891995
-0.0102578
-0.0121181
-0.0148653
-0.0184501
-0.0229664
-0.0263424
-0.0287851
-0.0251495
-0.0240938
-0.00933373
-0.00713664
-0.00756419
-0.00722577
-0.00717003
-0.00707514
-0.00710698
-0.00727601
-0.00761411
-0.00815924
-0.00895121
-0.0101003
-0.0117034
-0.0140045
-0.016878
-0.0204625
-0.0228164
-0.0243137
-0.0202141
-0.0180315
0.00670085
-0.0106836
-0.00808822
-0.00735705
-0.00664413
-0.00647
-0.00654091
-0.00679852
-0.00719791
-0.00776342
-0.00850831
-0.00954409
-0.0109447
-0.0129035
-0.0152444
-0.0180372
-0.0195096
-0.0197586
-0.0141888
-0.00573292
0.0366339
-0.00703155
-0.0100707
-0.00898699
-0.0089482
-0.00840447
-0.00806974
-0.00789815
-0.00791802
-0.00817949
-0.00866334
-0.00949721
-0.0106872
-0.0125525
-0.0148077
-0.0178365
-0.0192241
-0.0189449
-0.00681214
0.0161306
0.0913456
-0.0325386
-0.00729093
-0.00574692
-0.00494411
-0.00466151
-0.00477398
-0.0051647
-0.0056315
-0.00628468
-0.0070239
-0.00812311
-0.00941575
-0.0112522
-0.0129553
-0.0143797
-0.0118914
-0.00275844
0.0290864
0.0927433
0.222049
9.75127e-05
6.75788e-05
0.000118819
0.000218347
0.000375259
0.000591435
0.000870772
0.00121827
0.00163878
0.00213565
0.00270905
0.00335352
0.0040547
0.00478543
0.00550313
0.00615
0.0066588
0.00697372
0.00710352
0.00699251
0.00013122
0.000100223
0.00015935
0.00026125
0.000417043
0.000629316
0.00090247
0.00124166
0.00165177
0.00213646
0.00269658
0.00332777
0.00401635
0.00473871
0.00545255
0.00609956
0.00660877
0.00692014
0.00704817
0.00692109
7.23853e-05
3.16467e-05
8.93932e-05
0.000187041
0.00033678
0.000541295
0.000805582
0.00113575
0.00153813
0.00201852
0.00258057
0.00322327
0.00393842
0.00470302
0.00547318
0.00618172
0.00673959
0.00706381
0.00717024
0.00698006
-5.67314e-05
-0.000104072
-4.95688e-05
4.11428e-05
0.000181331
0.000373955
0.000624869
0.000941551
0.00133247
0.00180663
0.00237228
0.00303406
0.00378858
0.00461963
0.00548218
0.00629648
0.00694362
0.00729415
0.00735884
0.00705867
-0.000266912
-0.000319729
-0.000271079
-0.000190583
-6.40057e-05
0.000111978
0.000344185
0.000641705
0.00101559
0.00147891
0.00204599
0.00272968
0.00353493
0.0044569
0.00545177
0.00642636
0.00721834
0.00761675
0.00760716
0.00711933
-0.000556638
-0.000614687
-0.000574374
-0.000507654
-0.000399609
-0.000246691
-4.13084e-05
0.000227028
0.000571847
0.00101035
0.00156363
0.0022554
0.00310668
0.0041203
0.00527566
0.00647221
0.00749083
0.00798021
0.00785653
0.00705121
-0.000921674
-0.00098536
-0.000955899
-0.000907054
-0.000823636
-0.000702302
-0.000535384
-0.000311865
-1.6861e-05
0.000369713
0.000874475
0.00153153
0.00237856
0.00344031
0.00473606
0.00618435
0.00752688
0.00820421
0.00796162
0.00671365
-0.00135641
-0.00142653
-0.00141044
-0.00138391
-0.00133205
-0.0012525
-0.00113876
-0.000981174
-0.000766217
-0.000474669
-7.96033e-05
0.000455839
0.00117857
0.00213869
0.00337194
0.00492651
0.00662362
0.00775836
0.00760467
0.00612337
-0.00185366
-0.0019311
-0.00193043
-0.00193025
-0.00191669
-0.00188953
-0.00184517
-0.00177803
-0.00168041
-0.00154162
-0.00134731
-0.00108074
-0.000730139
-0.000286363
0.000321052
0.00134866
0.00316285
0.00538035
0.00624022
0.00565808
-0.00240476
-0.00249023
-0.00250568
-0.00253421
-0.00256381
-0.00259771
-0.00263731
-0.00268445
-0.00274294
-0.00282076
-0.00293548
-0.0031297
-0.00351024
-0.00423799
-0.00526925
-0.00580064
-0.00445854
-0.000767224
0.0028351
0.0051757
-0.00300018
-0.00309418
-0.00312413
-0.00318062
-0.00325403
-0.00335258
-0.00348445
-0.00366193
-0.00390589
-0.00425373
-0.00477611
-0.00561216
-0.00704797
-0.00950358
-0.0129207
-0.0158689
-0.0157645
-0.0109613
-0.00434452
0.00185153
-0.00362991
-0.00373143
-0.00376927
-0.00384739
-0.00395882
-0.00411752
-0.0043388
-0.00464621
-0.00507924
-0.00570742
-0.00665856
-0.00816839
-0.0106646
-0.0146954
-0.0201457
-0.0251485
-0.0268884
-0.022295
-0.0145235
-0.00527267
-0.00428959
-0.00439918
-0.00443497
-0.00452278
-0.00465735
-0.00485939
-0.00515069
-0.00556367
-0.00615103
-0.00700331
-0.00828154
-0.010269
-0.0134405
-0.0182849
-0.024712
-0.0304614
-0.0334577
-0.0297345
-0.0229372
-0.0127408
-0.0049685
-0.00507351
-0.00507995
-0.00515251
-0.00528885
-0.00551274
-0.00584656
-0.00632506
-0.00700542
-0.00798238
-0.00942191
-0.0115944
-0.0149624
-0.0198105
-0.0262237
-0.0314112
-0.0349653
-0.0316901
-0.0268161
-0.0167737
-0.0056966
-0.00581454
-0.00577098
-0.00581118
-0.00591199
-0.00611146
-0.00643407
-0.00691534
-0.00760868
-0.00859845
-0.0100374
-0.0121312
-0.0153153
-0.0196023
-0.0252018
-0.0294359
-0.03237
-0.0290337
-0.0265076
-0.0158659
-0.00656807
-0.00647439
-0.00629743
-0.00620857
-0.00624812
-0.00642247
-0.00673751
-0.0072103
-0.00788089
-0.00881241
-0.0101399
-0.0119816
-0.0147047
-0.0182313
-0.0226071
-0.0256647
-0.027638
-0.024048
-0.0232896
-0.00878068
-0.00700943
-0.00744287
-0.00710167
-0.00705179
-0.00696012
-0.00699432
-0.00716302
-0.00749715
-0.00803403
-0.00881261
-0.00994284
-0.0115187
-0.013785
-0.0165969
-0.0200636
-0.0222263
-0.0234284
-0.01942
-0.0174248
0.00740344
-0.0105005
-0.00792451
-0.00720109
-0.00650066
-0.00633087
-0.00640457
-0.00666189
-0.00705702
-0.00761383
-0.00834457
-0.00935898
-0.0107316
-0.0126584
-0.014945
-0.0176509
-0.0190036
-0.0190829
-0.0135998
-0.00526833
0.0375248
-0.0068943
-0.00994272
-0.00884297
-0.00881121
-0.00826573
-0.00793017
-0.00775532
-0.00776796
-0.00801947
-0.00848715
-0.00930296
-0.0104666
-0.012307
-0.014518
-0.0174843
-0.018777
-0.0183805
-0.00619225
0.0167644
0.0926611
-0.0323537
-0.0071169
-0.00556818
-0.00476691
-0.00449179
-0.00461068
-0.00500555
-0.00546967
-0.00611704
-0.00684285
-0.00792717
-0.00919479
-0.0110054
-0.0126569
-0.0140118
-0.0113957
-0.00211293
0.0299693
0.0937987
0.223827
0.000117795
8.79335e-05
0.000139978
0.000240941
0.000400175
0.00061975
0.000903848
0.00125782
0.00168693
0.00219496
0.00278244
0.00344409
0.0041653
0.00491805
0.00565767
0.00632339
0.00684427
0.00716209
0.00728705
0.00716633
0.000152008
0.000120906
0.000180848
0.000284195
0.000442322
0.000657989
0.000935875
0.00128148
0.0017001
0.00219584
0.00276994
0.00341823
0.00412706
0.00487165
0.0056079
0.00627418
0.00679538
0.00710856
0.00723006
0.00709366
9.43732e-05
5.34814e-05
0.000112091
0.000211242
0.000363398
0.000571429
0.000840633
0.0011775
0.00158886
0.00208104
0.00265822
0.00331983
0.00405784
0.00484806
0.00564451
0.00637581
0.00694713
0.00727089
0.00736504
0.00716168
-3.32074e-05
-8.07353e-05
-2.53118e-05
6.69809e-05
0.000209711
0.000406043
0.000662174
0.000986039
0.00138668
0.0018738
0.0024564
0.00313974
0.00392099
0.00478293
0.00567789
0.00652052
0.0071833
0.00752847
0.00756886
0.00724904
-0.000241734
-0.000294758
-0.000245134
-0.000162973
-3.37072e-05
0.00014622
0.000384025
0.000689332
0.0010739
0.00155166
0.00213801
0.00284688
0.00368409
0.00464319
0.0056785
0.00668919
0.00749956
0.00788285
0.00782734
0.0073107
-0.000529765
-0.000588043
-0.000546721
-0.000478278
-0.000367433
-0.000210379
9.18097e-07
0.000277553
0.00063385
0.00108805
0.00166253
0.00238218
0.003268
0.00432665
0.00553159
0.00677377
0.00781383
0.00826894
0.00806431
0.00721973
-0.000893093
-0.000957034
-0.000926577
-0.000876025
-0.000789808
-0.000664315
-0.00049142
-0.000259488
4.71792e-05
0.000449707
0.000975978
0.00166157
0.00254555
0.00365259
0.00499983
0.00649897
0.00786373
0.00847283
0.00810479
0.00681258
-0.00132605
-0.00139646
-0.00137946
-0.00135136
-0.00129689
-0.00121346
-0.00109414
-0.000928784
-0.000703225