/*--------------------------------*- C++ -*----------------------------------*\
  =========                 |
  \\      /  F ield         | OpenFOAM: The Open Source CFD Toolbox
   \\    /   O peration     | Website:  https://openfoam.org
    \\  /    A nd           | Version:  10
     \\/     M anipulation  |
\*---------------------------------------------------------------------------*/
FoamFile
{
    format      ascii;
    class       volScalarField;
    location    "3";
    object      p;
}
// * * * * * * * * * * * * * * * * * * * * * * * * * * * * * * * * * * * * * //

dimensions      [0 2 -2 0 0 0 0];

internalField   nonuniform List<scalar> 
400
(
-5.69162e-10
-2.07564e-05
-1.08551e-06
5.34167e-05
0.000141059
0.00026149
0.000413863
0.000596575
0.000807059
0.00104153
0.00129475
0.00156002
0.00182883
0.00209129
0.00233625
0.0025519
0.00272663
0.00285005
0.00291245
0.00290471
2.00207e-05
-1.94616e-06
1.7379e-05
6.99044e-05
0.000154171
0.000270471
0.000418335
0.000596462
0.000802575
0.00103315
0.00128321
0.00154617
0.00181374
0.00207599
0.00232164
0.00253863
0.00271509
0.0028406
0.00290504
0.00289637
-3.83164e-06
-2.90583e-05
-1.13507e-05
3.94648e-05
0.000121844
0.000236468
0.000383259
0.000561329
0.000768811
0.00100257
0.00125793
0.00152848
0.00180585
0.00207979
0.00233837
0.00256848
0.00275691
0.00289185
0.00296139
0.00295075
-6.71915e-05
-9.5915e-05
-8.02399e-05
-3.10593e-05
5.01152e-05
0.000164402
0.000312244
0.000493324
0.000706356
0.000948742
0.00121624
0.00150264
0.00179951
0.00209602
0.00237906
0.00263374
0.00284449
0.00299684
0.00307612
0.00306489
-0.000169412
-0.000202057
-0.000188764
-0.000141363
-6.11969e-05
5.34502e-05
0.000203723
0.000390078
0.000612031
0.000867752
0.00115363
0.00146392
0.00179009
0.00212063
0.00244085
0.00273324
0.00297863
0.00315837
0.00325353
0.00324311
-0.000311837
-0.000349373
-0.000339116
-0.000294033
-0.000215223
-0.000100183
5.31537e-05
0.000246271
0.000479774
0.00075292
0.0010631
0.00140524
0.00177113
0.00214857
0.00252098
0.00286736
0.00316339
0.00338404
0.00350358
0.00349555
-0.000496274
-0.000540018
-0.000533846
-0.000492194
-0.000415853
-0.000301321
-0.00014535
5.48744e-05
0.000301402
0.000594995
0.000934507
0.00131616
0.00173259
0.0021713
0.00261382
0.0030349
0.00340309
0.00368376
0.00384029
0.00383733
-0.000724947
-0.000776533
-0.000775966
-0.000739578
-0.000667799
-0.000555881
-0.000399102
-0.000192972
6.64187e-05
0.000381843
0.000754278
0.00118198
0.00165961
0.00217524
0.00270918
0.00323152
0.00370148
0.00407024
0.00428344
0.00429073
-0.00100048
-0.0010619
-0.00106901
-0.00104057
-0.000976629
-0.000870911
-0.000716897
-0.000508056
-0.000238188
9.80569e-05
0.000504516
0.000982593
0.0015307
0.00213922
0.00278909
0.00344656
0.00405959
0.00455873
0.00486073
0.004889
-0.00132589
-0.00139955
-0.00141697
-0.00140014
-0.00134868
-0.00125449
-0.00110891
-0.000903007
-0.000627887
-0.000275118
0.000162768
0.000691364
0.00131564
0.00203094
0.00282287
0.00365721
0.00447054
0.00516497
0.00561027
0.00568339
-0.00170468
-0.00179339
-0.0018243
-0.00182374
-0.00179093
-0.00171558
-0.00158648
-0.00139199
-0.00112027
-0.000759496
-0.00029804
0.000274966
0.000973481
0.00180251
0.00275943
0.00381798
0.00490862
0.0058981
0.00658174
0.00675657
-0.00214123
-0.00224812
-0.00229601
-0.00231726
-0.00231083
-0.00226374
-0.00216172
-0.0019901
-0.00173413
-0.00137883
-0.000908083
-0.000303163
0.000451766
0.00138564
0.00251639
0.00384246
0.00530623
0.00674012
0.00782913
0.00824648
-0.00264177
-0.0027699
-0.00283786
-0.00288693
-0.00291612
-0.00290886
-0.00284698
-0.00271246
-0.00248801
-0.00215666
-0.00169998
-0.00109532
-0.000314048
0.00068894
0.00196707
0.00357296
0.00550505
0.00759311
0.00939485
0.0104074
-0.00321658
-0.00336764
-0.0034567
-0.00353909
-0.00361443
-0.00366078
-0.00365437
-0.00357307
-0.00339773
-0.00311156
-0.00269742
-0.002133
-0.00138378
-0.000394906
0.000931291
0.00273427
0.00515311
0.00814481
0.0112543
0.013733
-0.00388564
-0.0040572
-0.00416189
-0.00427971
-0.00441276
-0.00452916
-0.00459559
-0.00458412
-0.00447445
-0.00425316
-0.00391063
-0.00343508
-0.00280337
-0.00196497
-0.000810507
0.000890434
0.00353275
0.00749096
0.0126522
0.0181748
-0.0046874
-0.00485446
-0.00495274
-0.00510768
-0.00531522
-0.00552343
-0.00568282
-0.00575651
-0.00572361
-0.00557788
-0.00532503
-0.00497767
-0.00455031
-0.00404651
-0.00342832
-0.00247935
-0.000509359
0.00350386
0.0103223
0.0203898
-0.00568304
-0.00587842
-0.00590281
-0.00604355
-0.00632978
-0.00665464
-0.0069301
-0.0071005
-0.00714426
-0.00706504
-0.00689165
-0.00667273
-0.00649235
-0.00647773
-0.00681739
-0.00756637
-0.00780837
-0.00604187
0.000633063
0.0176457
-0.0075
-0.00695652
-0.00657666
-0.00685046
-0.00736181
-0.00789794
-0.00833592
-0.00861047
-0.00871258
-0.00865854
-0.00850957
-0.00834727
-0.0083488
-0.00882545
-0.0103297
-0.0134594
-0.0178177
-0.0182001
-0.00988678
0.023696
-0.00705564
-0.00925208
-0.00861652
-0.0085323
-0.008954
-0.00953468
-0.0100054
-0.0102582
-0.0103074
-0.0101659
-0.00993976
-0.00971624
-0.00976365
-0.0105519
-0.0127705
-0.0167755
-0.0224676
-0.0172708
0.00892095
0.0721325
-0.0235027
-0.00959689
-0.00579746
-0.00610624
-0.00720941
-0.00820745
-0.0089763
-0.00947809
-0.00977776
-0.00981323
-0.00979938
-0.00972528
-0.0101563
-0.0112859
-0.0137423
-0.0158308
-0.013059
0.00711114
0.0649829
0.161975
)
;

boundaryField
{
    movingWall
    {
        type            zeroGradient;
    }
    fixedWalls
    {
        type            zeroGradient;
    }
    frontAndBack
    {
        type            empty;
    }
}


// ************************************************************************* //
