/*--------------------------------*- C++ -*----------------------------------*\
  =========                 |
  \\      /  F ield         | OpenFOAM: The Open Source CFD Toolbox
   \\    /   O peration     | Website:  https://openfoam.org
    \\  /    A nd           | Version:  10
     \\/     M anipulation  |
\*---------------------------------------------------------------------------*/
FoamFile
{
    format      ascii;
    class       surfaceScalarField;
    location    "3";
    object      phi;
}
// * * * * * * * * * * * * * * * * * * * * * * * * * * * * * * * * * * * * * //

dimensions      [0 3 -1 0 0 0 0];

internalField   nonuniform List<scalar> 
760
(
-1.15803e-05
1.15804e-05
-3.21881e-05
2.06078e-05
-5.39893e-05
2.18012e-05
-7.48619e-05
2.08726e-05
-9.41448e-05
1.92829e-05
-0.000111383
1.72377e-05
-0.000126143
1.47604e-05
-0.000138005
1.18626e-05
-0.000146568
8.56207e-06
-0.000151456
4.88892e-06
-0.000152348
8.91222e-07
-0.000148957
-3.39111e-06
-0.000141122
-7.83441e-06
-0.000128807
-1.23152e-05
-0.000112141
-1.6666e-05
-9.14602e-05
-2.06808e-05
-6.73578e-05
-2.41023e-05
-4.09282e-05
-2.64296e-05
-1.51884e-05
-2.57398e-05
-1.51884e-05
-2.1379e-05
3.29594e-05
-5.47953e-05
5.4024e-05
-8.95695e-05
5.65754e-05
-0.000122767
5.40705e-05
-0.000153271
4.97869e-05
-0.000180311
4.42777e-05
-0.000203203
3.76517e-05
-0.000221312
2.9972e-05
-0.00023406
2.131e-05
-0.000240929
1.17577e-05
-0.000241525
1.48727e-06
-0.000235445
-9.47093e-06
-0.000222545
-2.07342e-05
-0.000202833
-3.20271e-05
-0.00017656
-4.29394e-05
-0.000144275
-5.29659e-05
-0.000106919
-6.14581e-05
-6.61752e-05
-6.71733e-05
-2.61441e-05
-6.5771e-05
-4.13324e-05
-2.41425e-05
5.71019e-05
-6.14613e-05
9.13428e-05
-0.000100106
9.52206e-05
-0.000136932
9.08956e-05
-0.000170745
8.36002e-05
-0.000200713
7.42452e-05
-0.000226094
6.30328e-05
-0.000246207
5.00856e-05
-0.00026043
3.5533e-05
-0.000268206
1.95334e-05
-0.00026907
2.35078e-06
-0.000262597
-1.59434e-05
-0.000248572
-3.47596e-05
-0.000226951
-5.36476e-05
-0.000197951
-7.19396e-05
-0.000162121
-8.87956e-05
-0.000120463
-0.000103116
-7.48154e-05
-0.000112821
-2.9708e-05
-0.000110878
-7.10405e-05
-2.56616e-05
8.27635e-05
-6.54817e-05
0.000131163
-0.00010669
0.000136429
-0.000145956
0.000130161
-0.000182058
0.000119702
-0.000214146
0.000106334
-0.000241464
9.03505e-05
-0.000263309
7.19307e-05
-0.000279028
5.12515e-05
-0.000288011
2.85165e-05
-0.000289747
4.0866e-06
-0.000283678
-2.2012e-05
-0.000269487
-4.89507e-05
-0.000246988
-7.61463e-05
-0.000216263
-0.000102665
-0.000177768
-0.000127291
-0.000132497
-0.000148387
-8.24482e-05
-0.00016287
-3.27252e-05
-0.000160601
-0.000103766
-2.74754e-05
0.000110239
-7.02461e-05
0.000173934
-0.000114521
0.000180704
-0.00015674
0.00017238
-0.000195641
0.000158603
-0.000230361
0.000141053
-0.000260133
0.000120123
-0.000284243
9.60405e-05
-0.000302006
6.90145e-05
-0.000312763
3.92733e-05
-0.000315866
7.18934e-06
-0.000310685
-2.71926e-05
-0.000296666
-6.29696e-05
-0.000273403
-9.94096e-05
-0.00024074
-0.000135327
-0.000198945
-0.000169087
-0.000148952
-0.00019838
-9.29765e-05
-0.000218845
-3.69549e-05
-0.000216623
-0.000140721
-2.9857e-05
0.000140096
-7.64325e-05
0.000220509
-0.000124646
0.000228918
-0.00017065
0.000218384
-0.000213131
0.000201083
-0.000251217
0.00017914
-0.000284144
0.000153051
-0.000311194
0.00012309
-0.000331662
8.94824e-05
-0.000344825
5.24363e-05
-0.000349957
1.23217e-05
-0.0003462
-3.09495e-05
-0.00033276
-7.64097e-05
-0.000308883
-0.000123287
-0.000274027
-0.000170183
-0.000228106
-0.000215007
-0.000171879
-0.000254607
-0.000107801
-0.000282923
-4.29805e-05
-0.000281443
-0.000183701
-3.28796e-05
0.000172976
-8.42414e-05
0.000271871
-0.000137371
0.000282047
-0.000188066
0.000269079
-0.000234956
0.000247974
-0.000277176
0.000221359
-0.000313984
0.000189859
-0.000344689
0.000153795
-0.000368592
0.000113385
-0.000384939
6.87839e-05
-0.000392845
2.02274e-05
-0.00039133
-3.24642e-05
-0.000379188
-8.85522e-05
-0.000355186
-0.000147288
-0.000318177
-0.000207192
-0.000267445
-0.00026574
-0.000203311
-0.000318741
-0.000128409
-0.000357824
-5.14527e-05
-0.0003584
-0.000235154
-3.66152e-05
0.000209591
-9.38516e-05
0.000329107
-0.000152951
0.000341147
-0.00020928
0.000325408
-0.000261415
0.000300109
-0.000308521
0.000268466
-0.000349922
0.000231261
-0.000384998
0.000188871
-0.000413105
0.000141491
-0.000433487
8.91662e-05
-0.000445232
3.19729e-05
-0.000447076
-3.06208e-05
-0.000437417
-9.8211e-05
-0.000414357
-0.000170348
-0.00037582
-0.000245729
-0.000319995
-0.000321566
-0.000246258
-0.000392478
-0.000157135
-0.000446947
-6.34571e-05
-0.000452078
-0.000298611
-4.11735e-05
0.000250764
-0.000105517
0.000393451
-0.000171732
0.000407362
-0.000234665
0.000388341
-0.000292858
0.000358302
-0.000345553
0.00032116
-0.000392198
0.000277906
-0.00043232
0.000228993
-0.000465412
0.000174583
-0.000490822
0.000114576
-0.000507573
4.87241e-05
-0.000514373
-2.38201e-05
-0.000509048
-0.000103536
-0.000488891
-0.000190505
-0.000450481
-0.000284139
-0.000390178
-0.000381868
-0.00030544
-0.000477216
-0.000197907
-0.000554481
-8.09642e-05
-0.000569021
-0.000379575
-4.67312e-05
0.000297495
-0.000119623
0.000466343
-0.000194217
0.000481956
-0.000264742
0.000458866
-0.000329745
0.000423305
-0.000388617
0.000380033
-0.000441025
0.000330314
-0.000486744
0.000274711
-0.000525521
0.000213361
-0.000556922
0.000145977
-0.000580154
7.19553e-05
-0.000593944
-1.00294e-05
-0.000595636
-0.000101844
-0.000581656
-0.000204485
-0.00054677
-0.000319025
-0.000484436
-0.000444202
-0.000388437
-0.000573216
-0.000257669
-0.000685248
-0.000107857
-0.000718834
-0.000487432
-5.35792e-05
0.000351075
-0.000136776
0.00054954
-0.000221158
0.000566337
-0.00030025
0.000537958
-0.000372689
0.000495744
-0.000438135
0.000445479
-0.000496593
0.000388772
-0.000548223
0.000326341
-0.000593183
0.000258322
-0.000631467
0.00018426
-0.000662594
0.000103083
-0.000685895
1.32716e-05
-0.00069825
-8.9489e-05
-0.000695552
-0.000207183
-0.000670418
-0.000344159
-0.000612056
-0.000502564
-0.00050767
-0.000677603
-0.000349335
-0.000843583
-0.00015251
-0.000915659
-0.000639942
-6.22089e-05
0.000413283
-0.000157943
0.000645274
-0.000253701
0.000662096
-0.000342263
0.00062652
-0.000422539
0.00057602
-0.000494638
0.000517577
-0.000559066
0.0004532
-0.000616523
0.000383798
-0.000667768
0.000309567
-0.000713469
0.000229961
-0.000753995
0.000143609
-0.000788909
4.81858e-05
-0.00081669
-6.17085e-05
-0.000832666
-0.000191207
-0.000827807
-0.000349018
-0.000785997
-0.000544374
-0.000683659
-0.000779941
-0.000497872
-0.00102937
-0.000234302
-0.00117923
-0.000874243
-7.34755e-05
0.000486759
-0.000184706
0.000756505
-0.000293617
0.000771006
-0.000392349
0.000725252
-0.000480472
0.000664142
-0.000558829
0.000595934
-0.000628618
0.00052299
-0.000691231
0.00044641
-0.000748191
0.000366528
-0.000801098
0.000282867
-0.000851458
0.000193969
-0.000900398
9.71266e-05
-0.000948369
-1.37384e-05
-0.000992495
-0.00014708
-0.00102418
-0.000317335
-0.00102272
-0.000545835
-0.000949341
-0.000853317
-0.000751522
-0.00122719
-0.000397888
-0.00153286
-0.00127213
-8.89181e-05
0.000575677
-0.00021972
0.000887307
-0.000343652
0.000894938
-0.000452769
0.000834369
-0.000548097
0.00075947
-0.000631645
0.000679482
-0.000705486
0.000596831
-0.000771797
0.000512721
-0.000832962
0.000427693
-0.000891677
0.000341582
-0.00095104
0.000253331
-0.00101443
0.000160517
-0.0010861
5.79357e-05
-0.00116833
-6.48516e-05
-0.00125832
-0.000227343
-0.0013365
-0.00046766
-0.00134751
-0.000842303
-0.00118623
-0.00138847
-0.000723019
-0.00199607
-0.00199515
-0.000111363
0.00068704
-0.000267589
0.00104353
-0.000408153
0.0010355
-0.000526704
0.00095292
-0.000627501
0.000860267
-0.000714259
0.00076624
-0.000789972
0.000672544
-0.000857535
0.000580284
-0.000920124
0.000490282
-0.000981483
0.000402941
-0.00104635
0.000318202
-0.00112122
0.000235387
-0.00121509
0.000151799
-0.00134032
6.03816e-05
-0.00150831
-5.93567e-05
-0.00171198
-0.000263984
-0.00188042
-0.000673867
-0.00181992
-0.00144897
-0.00121916
-0.00259684
-0.00321431
-0.000147248
0.000834288
-0.000336372
0.00123266
-0.000492939
0.00119207
-0.000617915
0.0010779
-0.000720874
0.000963226
-0.000807554
0.000852921
-0.00088159
0.00074658
-0.000946307
0.000645001
-0.00100543
0.000549406
-0.00106336
0.000460865
-0.00112595
0.0003808
-0.00120169
0.000311125
-0.00130517
0.000255282
-0.00145966
0.000214868
-0.00169651
0.000177497
-0.0020262
6.5705e-05
-0.00235258
-0.000347487
-0.00236869
-0.00143286
-0.00159823
-0.00336729
-0.00481254
-0.000204478
0.00103877
-0.000446903
0.00147508
-0.000613157
0.00135832
-0.000732274
0.00119701
-0.000828078
0.00105903
-0.000906174
0.000931016
-0.000968836
0.000809242
-0.0010195
0.000695664
-0.00106267
0.000592573
-0.00110285
0.000501051
-0.00114584
0.000423787
-0.00119885
0.000364132
-0.00127683
0.000333269
-0.00140513
0.000343164
-0.00162333
0.000395701
-0.00194759
0.000389966
-0.00225086
-4.42198e-05
-0.00222611
-0.00145762
-0.00148125
-0.00411215
-0.00629379
-0.000214586
0.00125335
-0.00055374
0.00181424
-0.000751006
0.00155559
-0.000856376
0.00130238
-0.000907784
0.00111044
-0.000926409
0.000949641
-0.000922872
0.000805705
-0.000906511
0.000679303
-0.00088534
0.000571402
-0.000863057
0.000478768
-0.000844376
0.000405105
-0.000828876
0.000348632
-0.000822612
0.000327005
-0.000830466
0.000351018
-0.000869034
0.000434268
-0.000947425
0.000468357
-0.00102998
3.83361e-05
-0.00101564
-0.00147196
-0.000661166
-0.00446662
-0.00695495
-0.00148241
0.00273577
-0.00135074
0.00168256
-0.000917002
0.00112186
-0.000523988
0.000909368
-0.000179657
0.000766107
0.000130228
0.000639757
0.000406288
0.000529645
0.000649352
0.000436239
0.000858355
0.0003624
0.00103906
0.000298058
0.00119191
0.000252264
0.00132679
0.000213752
0.00144824
0.000205554
0.00157328
0.000225979
0.0017466
0.000260941
0.00199442
0.000220537
0.00209509
-6.23321e-05
0.00200788
-0.00138475
0.00123452
-0.00369326
-0.00572043
0.00273577
0.00441832
0.00554018
0.00644955
0.00721565
0.00785541
0.00838506
0.0088213
0.0091837
0.00948175
0.00973402
0.00994777
0.0101533
0.0103793
0.0106402
0.0108608
0.0107984
0.00941369
0.00572043
)
;

boundaryField
{
    movingWall
    {
        type            calculated;
        value           uniform 0;
    }
    fixedWalls
    {
        type            calculated;
        value           uniform 0;
    }
    frontAndBack
    {
        type            empty;
        value           nonuniform List<scalar> 0();
    }
}


// ************************************************************************* //
