/*--------------------------------*- C++ -*----------------------------------*\
  =========                 |
  \\      /  F ield         | OpenFOAM: The Open Source CFD Toolbox
   \\    /   O peration     | Website:  https://openfoam.org
    \\  /    A nd           | Version:  10
     \\/     M anipulation  |
\*---------------------------------------------------------------------------*/
FoamFile
{
    format      ascii;
    class       volVectorField;
    location    "3";
    object      U;
}
// * * * * * * * * * * * * * * * * * * * * * * * * * * * * * * * * * * * * * //

dimensions      [0 1 -1 0 0 0 0];

internalField   nonuniform List<vector> 
400
(
(-0.000249293 0.000244273 0)
(-0.00104552 0.000454589 0)
(-0.00215165 0.000484221 0)
(-0.00323312 0.000464721 0)
(-0.00424118 0.00043084 0)
(-0.00515738 0.000387104 0)
(-0.00596029 0.000333746 0)
(-0.00662846 0.000270796 0)
(-0.00714125 0.000198479 0)
(-0.00747924 0.000117349 0)
(-0.00762495 2.83637e-05 0)
(-0.00756301 -6.76548e-05 0)
(-0.0072821 -0.000167976 0)
(-0.00677719 -0.000269629 0)
(-0.00605045 -0.000368753 0)
(-0.00511356 -0.000460585 0)
(-0.00398859 -0.000539273 0)
(-0.00270697 -0.000593395 0)
(-0.00135216 -0.000577525 0)
(-0.000336338 -0.000332165 0)
(-0.000478129 0.00105446 0)
(-0.00183694 0.00178368 0)
(-0.00360828 0.00187613 0)
(-0.00533147 0.00179505 0)
(-0.00693135 0.00165589 0)
(-0.00837576 0.00147669 0)
(-0.0096293 0.0012603 0)
(-0.0106588 0.00100828 0)
(-0.0114338 0.000722613 0)
(-0.011927 0.000406096 0)
(-0.0121154 6.27369e-05 0)
(-0.0119789 -0.000301974 0)
(-0.0115037 -0.000679549 0)
(-0.010686 -0.00105905 0)
(-0.00953227 -0.00142645 0)
(-0.00806246 -0.00176454 0)
(-0.0063122 -0.00205157 0)
(-0.00433048 -0.00224558 0)
(-0.0022378 -0.00219452 0)
(-0.000593173 -0.00134788 0)
(-0.00054053 0.00223103 0)
(-0.00206584 0.00360215 0)
(-0.00403974 0.00376199 0)
(-0.00595304 0.00359328 0)
(-0.00772709 0.00330674 0)
(-0.00932813 0.00293861 0)
(-0.0107177 0.00249654 0)
(-0.01186 0.00198512 0)
(-0.0127224 0.00140935 0)
(-0.0132754 0.000775427 0)
(-0.0134935 9.15817e-05 0)
(-0.0133541 -0.000630864 0)
(-0.012841 -0.00137624 0)
(-0.0119476 -0.00212372 0)
(-0.0106777 -0.00284643 0)
(-0.00905055 -0.00351104 0)
(-0.00710306 -0.00407442 0)
(-0.00488737 -0.00445476 0)
(-0.00253546 -0.00437146 0)
(-0.000675128 -0.00278158 0)
(-0.000573227 0.00348393 0)
(-0.00219845 0.00554052 0)
(-0.00430523 0.00576807 0)
(-0.00634537 0.00550467 0)
(-0.00823791 0.00506276 0)
(-0.00994938 0.00449683 0)
(-0.0114406 0.00381923 0)
(-0.0126747 0.00303746 0)
(-0.013618 0.00215922 0)
(-0.014239 0.00119362 0)
(-0.0145095 0.000152314 0)
(-0.0144028 -0.000948391 0)
(-0.0138964 -0.00208675 0)
(-0.0129776 -0.00323235 0)
(-0.0116432 -0.00434507 0)
(-0.00990651 -0.00537379 0)
(-0.00780145 -0.00625087 0)
(-0.00538188 -0.0068491 0)
(-0.00279488 -0.00674397 0)
(-0.000743334 -0.00434534 0)
(-0.000612825 0.00480862 0)
(-0.00235602 0.00759871 0)
(-0.00462026 0.00789833 0)
(-0.00681297 0.00753541 0)
(-0.00884959 0.00693209 0)
(-0.0106969 0.00616196 0)
(-0.0123153 0.00524203 0)
(-0.0136676 0.00418241 0)
(-0.0147189 0.00299285 0)
(-0.0154358 0.00168419 0)
(-0.0157856 0.000270015 0)
(-0.0157363 -0.00123065 0)
(-0.0152578 -0.00279134 0)
(-0.0143256 -0.00437347 0)
(-0.0129249 -0.00592378 0)
(-0.011058 -0.00737129 0)
(-0.00875176 -0.00861849 0)
(-0.00606117 -0.00948214 0)
(-0.00315584 -0.0093695 0)
(-0.000839856 -0.00607685 0)
(-0.000665395 0.00623691 0)
(-0.00256173 0.00982406 0)
(-0.00502835 0.0102022 0)
(-0.00741681 0.00973346 0)
(-0.00963786 0.00896004 0)
(-0.0116589 0.00797644 0)
(-0.0134403 0.00680463 0)
(-0.0149449 0.0054571 0)
(-0.0161375 0.00394477 0)
(-0.0169827 0.00227864 0)
(-0.0174444 0.000471974 0)
(-0.0174829 -0.00145624 0)
(-0.0170564 -0.00347819 0)
(-0.0161256 -0.00554984 0)
(-0.014657 -0.0076059 0)
(-0.0126338 -0.00955338 0)
(-0.0100683 -0.0112572 0)
(-0.0070129 -0.012461 0)
(-0.00366756 -0.0123665 0)
(-0.000978291 -0.00806082 0)
(-0.000732435 0.00779992 0)
(-0.00282217 0.0122637 0)
(-0.00554248 0.0127271 0)
(-0.00817441 0.0121434 0)
(-0.0106232 0.011188 0)
(-0.0128577 0.00997886 0)
(-0.0148392 0.00854357 0)
(-0.016532 0.00689696 0)
(-0.0179018 0.00505016 0)
(-0.0189128 0.00301242 0)
(-0.0195245 0.000793534 0)
(-0.0196904 -0.00159207 0)
(-0.0193551 -0.00412035 0)
(-0.0184572 -0.00674694 0)
(-0.0169357 -0.00939839 0)
(-0.0147417 -0.011959 0)
(-0.0118591 -0.0142468 0)
(-0.00832738 -0.0159071 0)
(-0.00438404 -0.0158786 0)
(-0.00117402 -0.0104018 0)
(-0.00081558 0.00953115 0)
(-0.0031435 0.0149688 0)
(-0.00617391 0.0155237 0)
(-0.00909998 0.0148115 0)
(-0.0118208 0.0136578 0)
(-0.0143081 0.0122074 0)
(-0.0165258 0.010495 0)
(-0.0184419 0.00853797 0)
(-0.0200256 0.00634658 0)
(-0.0212429 0.00392606 0)
(-0.0220523 0.00127883 0)
(-0.0224004 -0.00159083 0)
(-0.022215 -0.00467145 0)
(-0.0214081 -0.00792752 0)
(-0.0198784 -0.0112863 0)
(-0.0175256 -0.0146137 0)
(-0.0142792 -0.0176713 0)
(-0.0101425 -0.0199702 0)
(-0.00539301 -0.0200983 0)
(-0.00145327 -0.0132448 0)
(-0.000917499 0.0114686 0)
(-0.00353486 0.0179972 0)
(-0.00693825 0.0186468 0)
(-0.0102122 0.0177857 0)
(-0.0132493 0.0164109 0)
(-0.0160265 0.014699 0)
(-0.0185136 0.0126937 0)
(-0.0206855 0.0104154 0)
(-0.0225188 0.00787321 0)
(-0.0239858 0.00506583 0)
(-0.0250467 0.00198384 0)
(-0.0256464 -0.00138591 0)
(-0.0256979 -0.00505745 0)
(-0.0250794 -0.00901869 0)
(-0.0236359 -0.0132162 0)
(-0.0211868 -0.0175121 0)
(-0.0175631 -0.021609 0)
(-0.0126827 -0.0248365 0)
(-0.00684867 -0.0252943 0)
(-0.00186476 -0.0168066 0)
(-0.00104268 0.0136574 0)
(-0.00401058 0.0214153 0)
(-0.00785883 0.0221567 0)
(-0.0115376 0.0211155 0)
(-0.0149338 0.0194872 0)
(-0.0180337 0.0174867 0)
(-0.0208166 0.0151695 0)
(-0.0232698 0.0125606 0)
(-0.0253829 0.00966764 0)
(-0.0271404 0.0064811 0)
(-0.0285127 0.00297524 0)
(-0.029451 -0.000889183 0)
(-0.0298581 -0.00516765 0)
(-0.0295791 -0.00989388 0)
(-0.028394 -0.0150679 0)
(-0.026004 -0.0205846 0)
(-0.0220701 -0.026106 0)
(-0.0163264 -0.0307281 0)
(-0.00904128 -0.0318531 0)
(-0.00250742 -0.0214372 0)
(-0.00119879 0.016154 0)
(-0.00459374 0.0253026 0)
(-0.00897137 0.0261204 0)
(-0.0131154 0.0248507 0)
(-0.0169094 0.0229223 0)
(-0.0203558 0.0205963 0)
(-0.0234502 0.0179437 0)
(-0.0261982 0.0149961 0)
(-0.0286098 0.0117606 0)
(-0.0306903 0.00821863 0)
(-0.0324303 0.00432419 0)
(-0.0338041 1.49943e-06 0)
(-0.0347197 -0.00484701 0)
(-0.0350006 -0.0103499 0)
(-0.034363 -0.0166111 0)
(-0.0323517 -0.0236342 0)
(-0.0283522 -0.0311102 0)
(-0.0217345 -0.0378746 0)
(-0.0125599 -0.0403355 0)
(-0.0036019 -0.0277529 0)
(-0.00139933 0.0190339 0)
(-0.0053224 0.0297581 0)
(-0.0103317 0.0306135 0)
(-0.0150035 0.0290397 0)
(-0.0192256 0.0267434 0)
(-0.0230282 0.0240412 0)
(-0.0264317 0.0210228 0)
(-0.0294683 0.017729 0)
(-0.0321766 0.0141682 0)
(-0.0345942 0.0103153 0)
(-0.0367495 0.00610499 0)
(-0.038645 0.00142367 0)
(-0.0402373 -0.00388829 0)
(-0.0413795 -0.0100823 0)
(-0.0417408 -0.0174442 0)
(-0.0407018 -0.0262239 0)
(-0.0372473 -0.0363219 0)
(-0.0300884 -0.0464027 0)
(-0.0186704 -0.0515677 0)
(-0.00567262 -0.0369872 0)
(-0.0016687 0.0224059 0)
(-0.00626097 0.0349113 0)
(-0.0120287 0.0357219 0)
(-0.0172891 0.0337253 0)
(-0.0219528 0.0309635 0)
(-0.0260983 0.0278157 0)
(-0.0297832 0.0243916 0)
(-0.033074 0.020742 0)
(-0.0360456 0.0168804 0)
(-0.0387774 0.0127807 0)
(-0.0413492 0.00836786 0)
(-0.0438307 0.00350111 0)
(-0.0462695 -0.00205439 0)
(-0.0486186 -0.00867665 0)
(-0.0506162 -0.01692 0)
(-0.0515592 -0.0274895 0)
(-0.0499591 -0.0408739 0)
(-0.0434827 -0.0560045 0)
(-0.0300542 -0.0666706 0)
(-0.00991716 -0.0518324 0)
(-0.00205251 0.0264399 0)
(-0.00752133 0.0409425 0)
(-0.0142059 0.0415428 0)
(-0.0201026 0.0389356 0)
(-0.0251896 0.0355709 0)
(-0.0296303 0.0318864 0)
(-0.0335337 0.0280043 0)
(-0.0370071 0.0239838 0)
(-0.0401655 0.0198475 0)
(-0.0431359 0.0155786 0)
(-0.0460624 0.0111096 0)
(-0.0491091 0.00629679 0)
(-0.0524744 0.000871176 0)
(-0.0563393 -0.00564343 0)
(-0.060738 -0.0141036 0)
(-0.0651826 -0.0259041 0)
(-0.0678752 -0.0427704 0)
(-0.0650213 -0.0649743 0)
(-0.0511231 -0.0859042 0)
(-0.0181488 -0.0767457 0)
(-0.00263778 0.0314122 0)
(-0.00930273 0.0480697 0)
(-0.0171021 0.0481415 0)
(-0.0236391 0.0446535 0)
(-0.0290686 0.040511 0)
(-0.0337049 0.0361808 0)
(-0.0377198 0.0317766 0)
(-0.0412586 0.0273601 0)
(-0.0444717 0.0229664 0)
(-0.0475295 0.0186007 0)
(-0.05064 0.0142301 0)
(-0.0540772 0.00975936 0)
(-0.0582258 0.00497942 0)
(-0.0636376 -0.000567382 0)
(-0.0710022 -0.00790871 0)
(-0.0806444 -0.0192652 0)
(-0.0908718 -0.0384956 0)
(-0.0956045 -0.069236 0)
(-0.0830879 -0.107647 0)
(-0.0283394 -0.118144 0)
(-0.00362623 0.0377019 0)
(-0.0120039 0.0569937 0)
(-0.0210866 0.0558531 0)
(-0.0281464 0.0508717 0)
(-0.0337388 0.0456786 0)
(-0.0383987 0.0405757 0)
(-0.0423526 0.0355754 0)
(-0.0457654 0.0307197 0)
(-0.0488092 0.0260604 0)
(-0.0516818 0.0216348 0)
(-0.0546287 0.0174736 0)
(-0.05799 0.0135922 0)
(-0.0623153 0.00999378 0)
(-0.0685518 0.00649165 0)
(-0.0782942 0.00224151 0)
(-0.0932231 -0.00582356 0)
(-0.11163 -0.0253566 0)
(-0.123591 -0.0682054 0)
(-0.11159 -0.140218 0)
(-0.0257638 -0.19439 0)
(-0.00539074 0.0479898 0)
(-0.0164124 0.0660361 0)
(-0.0270594 0.0623497 0)
(-0.0341649 0.0565475 0)
(-0.0393515 0.0506173 0)
(-0.0435918 0.0447914 0)
(-0.0470236 0.0391286 0)
(-0.0497808 0.033745 0)
(-0.0520614 0.0287544 0)
(-0.0540829 0.0242258 0)
(-0.056088 0.0202721 0)
(-0.0583655 0.0170364 0)
(-0.0614211 0.0148907 0)
(-0.0662342 0.0141986 0)
(-0.0748966 0.014658 0)
(-0.0900074 0.0118768 0)
(-0.109252 -0.00885495 0)
(-0.120182 -0.0762643 0)
(-0.112775 -0.203174 0)
(0.00220763 -0.311025 0)
(-0.000994926 0.0483359 0)
(-0.0187377 0.0868458 0)
(-0.035134 0.0792697 0)
(-0.0414522 0.0663141 0)
(-0.0447483 0.0566849 0)
(-0.0461993 0.0487206 0)
(-0.0463699 0.0415793 0)
(-0.045743 0.0352451 0)
(-0.0447317 0.0297431 0)
(-0.0435814 0.0250125 0)
(-0.042517 0.0211978 0)
(-0.0415184 0.0183974 0)
(-0.0408272 0.0173488 0)
(-0.0404704 0.0186839 0)
(-0.0420497 0.0223818 0)
(-0.0473233 0.0222633 0)
(-0.0570885 -0.00104374 0)
(-0.0565556 -0.0955707 0)
(-0.0706765 -0.264236 0)
(0.0477991 -0.389011 0)
(-0.0917434 0.106091 0)
(-0.0700263 0.0821567 0)
(-0.05521 0.0594203 0)
(-0.0360726 0.0505347 0)
(-0.017708 0.0437754 0)
(-0.000942129 0.0373437 0)
(0.0138984 0.0314582 0)
(0.0269829 0.0264124 0)
(0.0381657 0.0222873 0)
(0.0480316 0.0187471 0)
(0.0560795 0.016082 0)
(0.0638981 0.0139482 0)
(0.0696964 0.0136668 0)
(0.0768828 0.0150352 0)
(0.0810968 0.0194582 0)
(0.0917151 0.020152 0)
(0.0840319 0.000850023 0)
(0.106235 -0.0747876 0)
(0.0640342 -0.220317 0)
(0.130845 -0.322467 0)
(0.139586 0.113407 0)
(0.178111 0.091884 0)
(0.242345 0.0689778 0)
(0.298779 0.0536441 0)
(0.343199 0.0431718 0)
(0.37864 0.0351657 0)
(0.407296 0.0286691 0)
(0.431516 0.0231607 0)
(0.4506 0.0187687 0)
(0.46834 0.0149648 0)
(0.479834 0.0121776 0)
(0.495143 0.00982185 0)
(0.499849 0.00802057 0)
(0.517616 0.00775423 0)
(0.514639 0.00651875 0)
(0.536179 0.00813213 0)
(0.512114 0.00370197 0)
(0.514139 -0.0130986 0)
(0.412564 -0.0352233 0)
(0.324633 -0.0874294 0)
)
;

boundaryField
{
    movingWall
    {
        type            fixedValue;
        value           uniform (1 0 0);
    }
    fixedWalls
    {
        type            noSlip;
    }
    frontAndBack
    {
        type            empty;
    }
}


// ************************************************************************* //
