/*--------------------------------*- C++ -*----------------------------------*\
  =========                 |
  \\      /  F ield         | OpenFOAM: The Open Source CFD Toolbox
   \\    /   O peration     | Website:  https://openfoam.org
    \\  /    A nd           | Version:  10
     \\/     M anipulation  |
\*---------------------------------------------------------------------------*/
FoamFile
{
    format      ascii;
    class       volVectorField;
    location    "1.25";
    object      U;
}
// * * * * * * * * * * * * * * * * * * * * * * * * * * * * * * * * * * * * * //

dimensions      [0 1 -1 0 0 0 0];

internalField   nonuniform List<vector> 
8000
(
(-0.000255607 0.000253317 -1.52163e-06)
(-0.00087441 0.000313774 5.17651e-06)
(-0.00157107 0.000304637 6.44856e-06)
(-0.00221502 0.000283197 6.7146e-06)
(-0.00280484 0.000254627 6.32084e-06)
(-0.00332515 0.000219896 5.53108e-06)
(-0.00376299 0.000179846 4.48079e-06)
(-0.00410763 0.000135369 3.23773e-06)
(-0.00435043 8.73992e-05 1.84437e-06)
(-0.00448482 3.69098e-05 3.31051e-07)
(-0.00450642 -1.50833e-05 -1.26053e-06)
(-0.00441314 -6.75339e-05 -2.88829e-06)
(-0.00420532 -0.000119229 -4.51569e-06)
(-0.00388601 -0.000168882 -6.08634e-06)
(-0.00346123 -0.00021509 -7.52386e-06)
(-0.00294019 -0.000256369 -8.71664e-06)
(-0.00233572 -0.000291207 -9.47372e-06)
(-0.00166466 -0.000317919 -9.46679e-06)
(-0.000931275 -0.000330476 -8.25386e-06)
(-0.000273842 -0.000268996 -1.0686e-06)
(-0.000328436 0.000882373 -8.75227e-06)
(-0.00110976 0.00107845 -1.82072e-06)
(-0.00197932 0.00104628 -9.62383e-08)
(-0.00278358 0.000972077 7.83266e-07)
(-0.00351941 0.000873163 1.0918e-06)
(-0.00416762 0.000753109 1.09385e-06)
(-0.00471219 0.00061495 9.14796e-07)
(-0.00514002 0.00046185 6.05867e-07)
(-0.00544063 0.000297059 1.90837e-07)
(-0.00560615 0.000123893 -3.24036e-07)
(-0.00563146 -5.4272e-05 -9.04045e-07)
(-0.00551407 -0.000233652 -1.54484e-06)
(-0.00525446 -0.000410339 -2.22946e-06)
(-0.00485644 -0.000580005 -2.9185e-06)
(-0.00432735 -0.000737917 -3.55132e-06)
(-0.00367848 -0.000879032 -4.02712e-06)
(-0.00292561 -0.000998156 -4.15406e-06)
(-0.00208957 -0.0010894 -3.59186e-06)
(-0.00117684 -0.00113258 -1.92494e-06)
(-0.000349977 -0.000933219 5.68883e-06)
(-0.000348176 0.00163655 -1.12845e-05)
(-0.00117679 0.00198485 -4.11025e-06)
(-0.00209849 0.00192435 -2.21412e-06)
(-0.00294986 0.00178699 -1.14972e-06)
(-0.00372817 0.00160411 -6.2935e-07)
(-0.00441332 0.00138254 -3.87453e-07)
(-0.00498877 0.00112804 -2.99931e-07)
(-0.00544109 0.000846542 -3.21574e-07)
(-0.0057596 0.000544004 -4.37335e-07)
(-0.00593634 0.000226441 -6.41352e-07)
(-0.00596573 -0.000100012 -9.27273e-07)
(-0.00584499 -0.000428753 -1.28779e-06)
(-0.00557435 -0.000752729 -1.70676e-06)
(-0.00515707 -0.00106415 -2.15015e-06)
(-0.00460012 -0.00135443 -2.56165e-06)
(-0.00391466 -0.00161428 -2.84113e-06)
(-0.00311678 -0.00183404 -2.78986e-06)
(-0.00222833 -0.00200261 -2.04868e-06)
(-0.00125586 -0.00208334 -1.94093e-07)
(-0.000373544 -0.00172921 7.79313e-06)
(-0.000371921 0.00241918 -1.32175e-05)
(-0.00125757 0.00292706 -5.63606e-06)
(-0.00224246 0.0028362 -3.5788e-06)
(-0.0031509 0.00263245 -2.37227e-06)
(-0.0039804 0.00236189 -1.72148e-06)
(-0.00470991 0.00203488 -1.34349e-06)
(-0.00532244 0.00166011 -1.11104e-06)
(-0.00580442 0.00124635 -9.81679e-07)
(-0.00614514 0.00080227 -9.43424e-07)
(-0.00633651 0.000336466 -9.94453e-07)
(-0.00637278 -0.000142337 -1.13549e-06)
(-0.00625057 -0.00062512 -1.35697e-06)
(-0.00596923 -0.00110178 -1.6521e-06)
(-0.00553114 -0.00156116 -1.98902e-06)
(-0.00494233 -0.00199073 -2.3114e-06)
(-0.00421328 -0.0023767 -2.51397e-06)
(-0.00336007 -0.00270439 -2.38191e-06)
(-0.00240567 -0.00295675 -1.52182e-06)
(-0.00135715 -0.0030793 5.25256e-07)
(-0.000403844 -0.00256262 9.10026e-06)
(-0.000405218 0.00326456 -1.52032e-05)
(-0.00137027 0.0039449 -7.00596e-06)
(-0.00244264 0.00382004 -4.75848e-06)
(-0.00342979 0.00354332 -3.40878e-06)
(-0.0043294 0.00317717 -2.64921e-06)
(-0.00511923 0.00273611 -2.1733e-06)
(-0.00578189 0.00223224 -1.84507e-06)
(-0.00630387 0.00167741 -1.62087e-06)
(-0.00667465 0.00108302 -1.4903e-06)
(-0.0068862 0.000460046 -1.45464e-06)
(-0.00693252 -0.000180588 -1.5183e-06)
(-0.00680946 -0.000827572 -1.67018e-06)
(-0.00651512 -0.0014682 -1.91261e-06)
(-0.00605036 -0.0020881 -2.21499e-06)
(-0.00541951 -0.00267068 -2.51879e-06)
(-0.00463173 -0.0031971 -2.70921e-06)
(-0.00370266 -0.00364668 -2.54605e-06)
(-0.00265647 -0.00399501 -1.58423e-06)
(-0.00150114 -0.00416693 6.92054e-07)
(-0.000447168 -0.00347418 1.01673e-05)
(-0.000449562 0.00419559 -1.75749e-05)
(-0.00151993 0.00506529 -8.5396e-06)
(-0.0027076 0.00490098 -6.05397e-06)
(-0.00379762 0.0045418 -4.53378e-06)
(-0.00478797 0.00406883 -3.65519e-06)
(-0.00565506 0.00350181 -3.08153e-06)
(-0.00638138 0.00285692 -2.66499e-06)
(-0.0069539 0.00214941 -2.35921e-06)
(-0.00736277 0.00139341 -2.15455e-06)
(-0.00760038 0.000602014 -2.05502e-06)
(-0.00766066 -0.00021218 -2.06945e-06)
(-0.00753842 -0.00103627 -2.18359e-06)
(-0.00722998 -0.00185547 -2.41094e-06)
(-0.00673383 -0.00265257 -2.72353e-06)
(-0.00605153 -0.00340686 -3.0593e-06)
(-0.00518967 -0.00409384 -3.28982e-06)
(-0.0041625 -0.00468547 -3.13883e-06)
(-0.00299519 -0.00514771 -2.08721e-06)
(-0.00169672 -0.00538055 4.62226e-07)
(-0.000506304 -0.00449415 1.11931e-05)
(-0.000506781 0.00523787 -2.06124e-05)
(-0.00171248 0.00631823 -1.04945e-05)
(-0.00304712 0.00610641 -7.70215e-06)
(-0.00426665 0.00565134 -5.95604e-06)
(-0.00536961 0.00505616 -4.91828e-06)
(-0.00633117 0.00434733 -4.21545e-06)
(-0.00713432 0.00354609 -3.68605e-06)
(-0.0077674 0.00267158 -3.28062e-06)
(-0.00822207 0.00174056 -2.99058e-06)
(-0.00849181 0.000767716 -2.82339e-06)
(-0.00857082 -0.00023348 -2.79363e-06)
(-0.00845277 -0.00124963 -2.8808e-06)
(-0.00813144 -0.0022649 -3.11438e-06)
(-0.00760176 -0.00325996 -3.47285e-06)
(-0.00686081 -0.00421026 -3.89065e-06)
(-0.00591065 -0.00508497 -4.22205e-06)
(-0.00476223 -0.00584691 -4.14178e-06)
(-0.00344076 -0.00644917 -3.02671e-06)
(-0.00195601 -0.00676051 -1.71066e-07)
(-0.000585182 -0.00565865 1.22469e-05)
(-0.000579587 0.00642215 -2.46133e-05)
(-0.0019565 0.00773931 -1.3126e-05)
(-0.00347498 0.00746788 -9.9287e-06)
(-0.00485367 0.00689796 -7.86414e-06)
(-0.00609225 0.00615952 -6.59061e-06)
(-0.00716515 0.00528803 -5.69255e-06)
(-0.00805715 0.0043112 -4.99423e-06)
(-0.00875945 0.00325257 -4.44362e-06)
(-0.00926665 0.00213137 -4.03392e-06)
(-0.00957444 0.000963025 -3.77728e-06)
(-0.00967801 -0.000239423 -3.69587e-06)
(-0.00956985 -0.00146374 -3.75664e-06)
(-0.00924033 -0.00269478 -4.01396e-06)
(-0.0086792 -0.00391257 -4.45848e-06)
(-0.00787656 -0.00508949 -5.02527e-06)
(-0.00682672 -0.006188 -5.54915e-06)
(-0.0055339 -0.00715959 -5.63983e-06)
(-0.00402097 -0.00793985 -4.52403e-06)
(-0.00229735 -0.00835676 -1.31756e-06)
(-0.000689912 -0.00701363 1.32855e-05)
(-0.000672116 0.00778636 -2.99923e-05)
(-0.00226468 0.00937141 -1.67811e-05)
(-0.00401095 0.00902197 -1.30266e-05)
(-0.00558202 0.00831015 -1.04877e-05)
(-0.00697987 0.00739958 -8.84269e-06)
(-0.00817952 0.00633814 -7.63108e-06)
(-0.0091698 0.00516186 -6.66443e-06)
(-0.00994725 0.00389935 -5.88884e-06)
(-0.0105116 0.00257179 -5.29943e-06)
(-0.0108626 0.00119406 -4.9141e-06)
(-0.0109976 -0.000223148 -4.76526e-06)
(-0.0109081 -0.00167127 -4.79278e-06)
(-0.0105803 -0.00313857 -5.09471e-06)
(-0.00999647 -0.00460716 -5.677e-06)
(-0.00913627 -0.00604814 -6.49092e-06)
(-0.00798125 -0.00741766 -7.35541e-06)
(-0.00652309 -0.00865356 -7.79923e-06)
(-0.00477702 -0.00966762 -6.83734e-06)
(-0.00274925 -0.0102325 -3.29761e-06)
(-0.000830401 -0.00861987 1.41156e-05)
(-0.000790922 0.00937927 -3.74051e-05)
(-0.00265631 0.0112679 -2.20053e-05)
(-0.00468383 0.0108118 -1.74304e-05)
(-0.00648442 0.0099188 -1.41429e-05)
(-0.00806465 0.00879619 -1.18851e-05)
(-0.00940292 0.00750901 -1.01547e-05)
(-0.010496 0.00610403 -8.75347e-06)
(-0.0113496 0.00461546 -7.62439e-06)
(-0.011972 0.00306554 -6.76169e-06)
(-0.0123694 0.00146662 -6.18763e-06)
(-0.0125434 -0.00017578 -5.95126e-06)
(-0.0124853 -0.0018603 -5.92863e-06)
(-0.0121762 -0.00358265 -6.30252e-06)
(-0.0115888 -0.00533148 -7.09661e-06)
(-0.0106871 -0.00708072 -8.29767e-06)
(-0.00943275 -0.00878207 -9.73986e-06)
(-0.00779508 -0.0103582 -1.08642e-05)
(-0.00577122 -0.0116893 -1.03974e-05)
(-0.00335738 -0.01247 -6.65528e-06)
(-0.00102341 -0.0105617 1.42689e-05)
(-0.000946918 0.0112666 -4.79608e-05)
(-0.00316164 0.0134969 -2.97168e-05)
(-0.0055365 0.0128889 -2.38175e-05)
(-0.0076075 0.0117566 -1.92772e-05)
(-0.00939013 0.0103662 -1.59717e-05)
(-0.0108718 0.00880617 -1.33695e-05)
(-0.0120634 0.0071369 -1.12619e-05)
(-0.0129858 0.00539834 -9.58203e-06)
(-0.0136605 0.00361215 -8.3104e-06)
(-0.014104 0.00178501 -7.45816e-06)
(-0.0143245 -8.67907e-05 -7.10654e-06)
(-0.014315 -0.00201303 -7.00882e-06)
(-0.0140515 -0.00400337 -7.49547e-06)
(-0.0134946 -0.00605965 -8.60168e-06)
(-0.0125869 -0.00816592 -1.03869e-05)
(-0.0112595 -0.0102756 -1.27645e-05)
(-0.00944424 -0.0122971 -1.51386e-05)
(-0.0070996 -0.0140709 -1.58882e-05)
(-0.00419794 -0.0151785 -1.23082e-05)
(-0.00129903 -0.0129624 1.26439e-05)
(-0.00115934 0.0135419 -6.36448e-05)
(-0.00383008 0.0161485 -4.15267e-05)
(-0.0066342 0.0153153 -3.32537e-05)
(-0.00901872 0.0138561 -2.65042e-05)
(-0.0110157 0.0121192 -2.13575e-05)
(-0.0126323 0.0102243 -1.72793e-05)
(-0.0139039 0.00824803 -1.40377e-05)
(-0.0148744 0.00623525 -1.15284e-05)
(-0.0155854 0.00420384 -9.67264e-06)
(-0.0160684 0.00215033 -8.39777e-06)
(-0.0163414 5.61077e-05 -7.60118e-06)
(-0.0164019 -0.00210438 -7.67634e-06)
(-0.0162229 -0.0043636 -8.34681e-06)
(-0.0157513 -0.00674588 -9.87478e-06)
(-0.0149031 -0.00925722 -1.24978e-05)
(-0.0135649 -0.0118663 -1.63196e-05)
(-0.0116078 -0.0144766 -2.0872e-05)
(-0.00891319 -0.0168854 -2.43223e-05)
(-0.00540371 -0.0185046 -2.17222e-05)
(-0.00171477 -0.0160134 6.57483e-06)
(-0.00146425 0.0163479 -8.82177e-05)
(-0.00474572 0.0193444 -6.0343e-05)
(-0.00807833 0.0181649 -4.7375e-05)
(-0.010817 0.0162446 -3.65613e-05)
(-0.0130226 0.01405 -2.81148e-05)
(-0.0147431 0.0117393 -2.15622e-05)
(-0.0160526 0.00940671 -1.65713e-05)
(-0.0170301 0.00709809 -1.28975e-05)
(-0.0177455 0.00482162 -1.02928e-05)
(-0.0182518 0.0025578 -8.48238e-06)
(-0.0185793 0.000266954 -7.18359e-06)
(-0.0187348 -0.00210115 -7.32796e-06)
(-0.018693 -0.00460896 -8.14345e-06)
(-0.0183882 -0.00731641 -1.01279e-05)
(-0.0177073 -0.0102694 -1.38107e-05)
(-0.01648 -0.0134755 -1.97079e-05)
(-0.0144855 -0.0168611 -2.78182e-05)
(-0.0114536 -0.0202023 -3.69567e-05)
(-0.00721629 -0.0226409 -3.7058e-05)
(-0.002387 -0.0200314 -9.87863e-06)
(-0.0019341 0.01989 -0.000128504)
(-0.00605958 0.0232408 -9.10734e-05)
(-0.0100298 0.0215207 -6.83748e-05)
(-0.0131493 0.018933 -4.99387e-05)
(-0.0155219 0.0161249 -3.55585e-05)
(-0.0172758 0.0132966 -2.50171e-05)
(-0.0185452 0.0105551 -1.7548e-05)
(-0.0194596 0.00793656 -1.24428e-05)
(-0.0201257 0.00542995 -9.04119e-06)
(-0.0206231 0.00299174 -6.75172e-06)
(-0.0210004 0.000555166 -5.51035e-06)
(-0.0212779 -0.00196416 -4.99907e-06)
(-0.0214382 -0.00466601 -5.53267e-06)
(-0.0214118 -0.00766095 -7.53249e-06)
(-0.0210622 -0.0110599 -1.2011e-05)
(-0.020158 -0.0149481 -2.04632e-05)
(-0.0183627 -0.0193287 -3.3823e-05)
(-0.0151099 -0.0240489 -5.48713e-05)
(-0.0100955 -0.0277988 -6.18805e-05)
(-0.00356896 -0.025618 -4.88552e-05)
(-0.00270168 0.0247551 -0.000207185)
(-0.00802596 0.0281258 -0.00014558)
(-0.0127363 0.0254868 -9.92974e-05)
(-0.0162313 0.0218933 -6.56002e-05)
(-0.01866 0.0182595 -4.06023e-05)
(-0.0203131 0.0147934 -2.4238e-05)
(-0.0214126 0.0115943 -1.38651e-05)
(-0.0221551 0.00866841 -7.44842e-06)
(-0.0226902 0.00596975 -3.45611e-06)
(-0.0231263 0.00342051 -8.01707e-07)
(-0.023535 0.000920516 8.51613e-07)
(-0.0239557 -0.00165198 2.06842e-06)
(-0.0243895 -0.00444314 2.63699e-06)
(-0.0247817 -0.00762624 1.94784e-06)
(-0.0249939 -0.0114052 -1.61807e-06)
(-0.0247501 -0.0159986 -1.12403e-05)
(-0.0236205 -0.0215724 -3.03763e-05)
(-0.0204776 -0.0282789 -7.47136e-05)
(-0.0149945 -0.0340785 -9.54204e-05)
(-0.00590285 -0.0338742 -0.000141446)
(-0.00425739 0.030101 -0.000306171)
(-0.0114094 0.0337524 -0.00022317)
(-0.0166747 0.0299595 -0.000132595)
(-0.020398 0.0249759 -7.43598e-05)
(-0.0226211 0.0202702 -3.30928e-05)
(-0.0239387 0.0160472 -1.03955e-05)
(-0.0246666 0.0123662 1.76543e-06)
(-0.0250795 0.00916899 7.86368e-06)
(-0.025368 0.00635254 1.08547e-05)
(-0.0256659 0.00379226 1.26179e-05)
(-0.0260656 0.00134944 1.42078e-05)
(-0.0266333 -0.00113082 1.64772e-05)
(-0.0274031 -0.00384214 2.0138e-05)
(-0.028363 -0.00701689 2.47531e-05)
(-0.0294212 -0.0109719 2.924e-05)
(-0.0303109 -0.0161411 2.86062e-05)
(-0.0306581 -0.0229538 1.64288e-05)
(-0.0283633 -0.0325254 -6.24353e-05)
(-0.0237457 -0.0413179 -9.18557e-05)
(-0.0108099 -0.0468994 -0.000336711)
(-0.00592834 0.0440723 -0.000706833)
(-0.0155642 0.0419575 -0.000404213)
(-0.0219761 0.0354911 -0.000178705)
(-0.02593 0.028019 -5.39467e-05)
(-0.0275421 0.0218277 1.36861e-05)
(-0.0281463 0.0167377 3.78001e-05)
(-0.0282 0.0126094 4.45083e-05)
(-0.0280613 0.00924243 4.39749e-05)
(-0.0279451 0.00643799 4.14273e-05)
(-0.0279948 0.0040096 3.96697e-05)
(-0.0283109 0.00177901 4.06052e-05)
(-0.0289868 -0.000441953 4.4493e-05)
(-0.0300991 -0.00285103 5.66793e-05)
(-0.0317127 -0.00577317 7.64698e-05)
(-0.0338834 -0.00967958 0.000109946)
(-0.0364387 -0.0154128 0.000148875)
(-0.0396152 -0.0236888 0.000203656)
(-0.0393346 -0.0375143 7.79474e-05)
(-0.0388528 -0.0514597 7.55558e-05)
(-0.0200387 -0.0698059 -0.000704163)
(-0.0154886 0.0477795 -0.000922395)
(-0.0304853 0.0505532 -0.000621699)
(-0.0307234 0.0407025 -0.000108597)
(-0.0333332 0.0308199 7.39213e-05)
(-0.0326891 0.0228725 0.000161367)
(-0.0315989 0.0167704 0.000168832)
(-0.03034 0.0122227 0.000150339)
(-0.0292277 0.00880533 0.000126186)
(-0.0284191 0.00616569 0.000106315)
(-0.0280105 0.00403922 9.41342e-05)
(-0.0280821 0.00222207 9.09788e-05)
(-0.0287057 0.000534487 9.92024e-05)
(-0.0300375 -0.0011871 0.000124684)
(-0.0323069 -0.00321928 0.000168837)
(-0.0358895 -0.00577401 0.000256266)
(-0.0406152 -0.0102304 0.000359729)
(-0.0480298 -0.0157728 0.000589071)
(-0.0504078 -0.0334238 0.00047353)
(-0.0575587 -0.0490845 0.000712518)
(-0.0261832 -0.101833 -0.000877834)
(-0.0377535 0.106877 -0.00195676)
(-0.0374494 0.0513155 -4.54398e-05)
(-0.0315486 0.0388491 0.000555939)
(-0.0253246 0.0263564 0.0007977)
(-0.0182809 0.0178133 0.000742865)
(-0.0126539 0.012529 0.00057627)
(-0.00819187 0.00896095 0.000429087)
(-0.00486771 0.0064114 0.000320462)
(-0.00251697 0.00453955 0.000247513)
(-0.00099382 0.00311514 0.000204368)
(-0.000212331 0.00197486 0.00019125)
(-0.000134115 0.000986894 0.00020457)
(-0.000838935 6.55992e-07 0.000262124)
(-0.00217887 -0.00127729 0.000356363)
(-0.0050174 -0.00323015 0.00067008)
(-0.00661596 -0.00791089 0.00090845)
(-0.0162591 -0.0168181 0.00204776)
(-0.0106762 -0.0421944 0.00185722)
(-0.037877 -0.0834666 0.0032815)
(0.00373548 -0.17555 -0.00176059)
(0.117737 0.10418 -0.00311469)
(0.132233 0.0490953 -0.00212809)
(0.194054 0.0298505 -0.000677184)
(0.219093 0.0183387 0.000251269)
(0.234352 0.0109204 0.000505461)
(0.244966 0.00677626 0.00050396)
(0.252115 0.00447066 0.000435896)
(0.25699 0.00307136 0.000350531)
(0.260406 0.00215922 0.000277478)
(0.262776 0.0015325 0.000228363)
(0.264317 0.00107743 0.000206268)
(0.265183 0.000718379 0.000206616)
(0.265218 0.000414689 0.000256809)
(0.264847 1.51656e-05 0.000315507)
(0.2616 -0.000589077 0.00059861)
(0.260658 -0.00214517 0.000697239)
(0.241856 -0.00626031 0.00155019)
(0.24333 -0.0155221 0.00138761)
(0.154301 -0.0373457 -0.00067458)
(0.151215 -0.0988403 -0.0065748)
(-0.000316073 0.000312195 -3.35463e-06)
(-0.00108171 0.000392256 4.86532e-06)
(-0.00194197 0.000381136 6.79955e-06)
(-0.00273422 0.00035403 7.46798e-06)
(-0.00345839 0.000317923 7.22574e-06)
(-0.00409602 0.000274107 6.39348e-06)
(-0.00463152 0.000223665 5.15366e-06)
(-0.00505197 0.000167744 3.60721e-06)
(-0.00534701 0.000107536 1.82337e-06)
(-0.00550886 4.42705e-05 -1.45775e-07)
(-0.00553242 -2.07606e-05 -2.26727e-06)
(-0.00541543 -8.62583e-05 -4.4609e-06)
(-0.00515856 -0.000150722 -6.65416e-06)
(-0.00476577 -0.000212557 -8.75493e-06)
(-0.00424453 -0.00027004 -1.06406e-05)
(-0.0036061 -0.00032135 -1.21392e-05)
(-0.00286591 -0.00036463 -1.29795e-05)
(-0.00204395 -0.00039776 -1.27369e-05)
(-0.00114345 -0.000412646 -1.09347e-05)
(-0.000335764 -0.000330761 -1.87339e-06)
(-0.000412413 0.00108804 -1.27211e-05)
(-0.00139232 0.0013476 -4.11844e-06)
(-0.00247975 0.00130834 -1.5501e-06)
(-0.00348231 0.00121455 -7.67288e-08)
(-0.00439776 0.00108963 5.77612e-07)
(-0.00520265 0.000938281 7.49961e-07)
(-0.00587744 0.000764409 6.16338e-07)
(-0.00640615 0.000572057 2.5347e-07)
(-0.00677607 0.00036536 -3.02521e-07)
(-0.00697778 0.000148521 -1.03451e-06)
(-0.00700527 -7.42088e-05 -1.90733e-06)
(-0.00685587 -0.00029813 -2.88186e-06)
(-0.00653053 -0.000518373 -3.91227e-06)
(-0.00603424 -0.000729586 -4.92581e-06)
(-0.0053763 -0.000925946 -5.81592e-06)
(-0.0045707 -0.00110127 -6.41921e-06)
(-0.00363669 -0.00124918 -6.45812e-06)
(-0.00259942 -0.00136228 -5.48886e-06)
(-0.00146478 -0.00141356 -3.07735e-06)
(-0.000435499 -0.00114824 6.50836e-06)
(-0.000438119 0.002017 -1.64855e-05)
(-0.00147927 0.00247776 -7.62957e-06)
(-0.00263386 0.00240388 -4.78167e-06)
(-0.0036969 0.00223044 -2.98256e-06)
(-0.0046667 0.00199973 -1.98267e-06)
(-0.00551869 0.00172071 -1.43875e-06)
(-0.00623266 0.00140079 -1.17626e-06)
(-0.00679223 0.00104751 -1.12376e-06)
(-0.00718447 0.000668436 -1.25124e-06)
(-0.00739984 0.000271189 -1.54259e-06)
(-0.00743186 -0.000136544 -1.98534e-06)
(-0.0072775 -0.000546514 -2.54931e-06)
(-0.00693744 -0.000949964 -3.19392e-06)
(-0.00641608 -0.00133727 -3.8531e-06)
(-0.0057223 -0.00169787 -4.42488e-06)
(-0.00486998 -0.00202039 -4.74504e-06)
(-0.00387881 -0.00229298 -4.52499e-06)
(-0.00277515 -0.00250172 -3.29527e-06)
(-0.00156489 -0.00259766 -6.18508e-07)
(-0.000465371 -0.00212667 9.40157e-06)
(-0.000468371 0.00297874 -1.9667e-05)
(-0.00158187 0.00365015 -1.03578e-05)
(-0.00281623 0.00353914 -7.24011e-06)
(-0.00395101 0.00328208 -5.1728e-06)
(-0.00498492 0.00294104 -3.9161e-06)
(-0.00589221 0.00252958 -3.11305e-06)
(-0.00665217 0.00205887 -2.5847e-06)
(-0.00724828 0.00154005 -2.26224e-06)
(-0.0076676 0.00098414 -2.12008e-06)
(-0.00790051 0.000401992 -2.14796e-06)
(-0.00794031 -0.000195448 -2.33746e-06)
(-0.00778334 -0.000796887 -2.66296e-06)
(-0.00742925 -0.00138982 -3.09724e-06)
(-0.00688138 -0.00196049 -3.57661e-06)
(-0.00614751 -0.00249349 -3.99739e-06)
(-0.00524075 -0.00297195 -4.18585e-06)
(-0.00418077 -0.00337787 -3.82908e-06)
(-0.00299526 -0.00368995 -2.4123e-06)
(-0.0016906 -0.00383551 5.29963e-07)
(-0.000502938 -0.00314849 1.12719e-05)
(-0.000510696 0.00401675 -2.30455e-05)
(-0.00172473 0.00491567 -1.30225e-05)
(-0.0030693 0.00476295 -9.57815e-06)
(-0.00430281 0.0044139 -7.22601e-06)
(-0.00542432 0.00395251 -5.72761e-06)
(-0.00640664 0.00339776 -4.70004e-06)
(-0.00722862 0.00276515 -3.95499e-06)
(-0.00787386 0.00206978 -3.42316e-06)
(-0.00832972 0.00132611 -3.08181e-06)
(-0.00858673 0.000548025 -2.92521e-06)
(-0.00863796 -0.000250789 -2.95082e-06)
(-0.00847885 -0.00105617 -3.13395e-06)
(-0.0081076 -0.00185241 -3.45917e-06)
(-0.00752574 -0.00262177 -3.86362e-06)
(-0.00673907 -0.00334388 -4.23825e-06)
(-0.00575908 -0.0039957 -4.39227e-06)
(-0.00460494 -0.00455193 -3.97383e-06)
(-0.00330578 -0.00498208 -2.39704e-06)
(-0.00186879 -0.00518619 8.63169e-07)
(-0.000556467 -0.00426493 1.27156e-05)
(-0.000567062 0.00515963 -2.71073e-05)
(-0.00191442 0.00630819 -1.60975e-05)
(-0.00340425 0.00610686 -1.22357e-05)
(-0.00476675 0.00565368 -9.53081e-06)
(-0.00600156 0.00505765 -7.74744e-06)
(-0.00707989 0.00434448 -6.46841e-06)
(-0.00798049 0.00353491 -5.4929e-06)
(-0.00868768 0.00264837 -4.75021e-06)
(-0.00918973 0.0017028 -4.22027e-06)
(-0.00947778 0.000714714 -3.90203e-06)
(-0.00954488 -0.000300041 -3.79973e-06)
(-0.0093853 -0.00132531 -3.88691e-06)
(-0.00899516 -0.00234282 -4.16185e-06)
(-0.00837315 -0.00333133 -4.56406e-06)
(-0.00752172 -0.00426544 -4.9767e-06)
(-0.00644936 -0.00511517 -5.18464e-06)
(-0.00517351 -0.00584626 -4.77994e-06)
(-0.00372451 -0.00641631 -3.07253e-06)
(-0.0021104 -0.00669267 5.56061e-07)
(-0.000629372 -0.00551333 1.39599e-05)
(-0.000639836 0.00643894 -3.23129e-05)
(-0.00215858 0.00786509 -2.00193e-05)
(-0.0038336 0.00760488 -1.56076e-05)
(-0.00535848 0.00703043 -1.24264e-05)
(-0.00673384 0.00628012 -1.02548e-05)
(-0.00792942 0.0053884 -8.63665e-06)
(-0.00892476 0.00438246 -7.35858e-06)
(-0.009706 0.00328668 -6.34937e-06)
(-0.0102634 0.00212234 -5.59214e-06)
(-0.0105896 0.000907969 -5.0913e-06)
(-0.010678 -0.000339479 -4.85922e-06)
(-0.0105217 -0.00160318 -4.86451e-06)
(-0.0101136 -0.00286355 -5.12517e-06)
(-0.00944838 -0.00409674 -5.58781e-06)
(-0.00852294 -0.00527262 -6.12775e-06)
(-0.00734036 -0.00635349 -6.49898e-06)
(-0.00591412 -0.00729391 -6.2163e-06)
(-0.00427455 -0.0080356 -4.43925e-06)
(-0.00243015 -0.00840511 -4.08585e-07)
(-0.000726385 -0.00693787 1.50621e-05)
(-0.000732518 0.00789241 -3.91894e-05)
(-0.00246824 0.00963042 -2.52631e-05)
(-0.00437501 0.00929594 -2.01051e-05)
(-0.00609944 0.00857601 -1.62446e-05)
(-0.00764396 0.00764464 -1.35025e-05)
(-0.00897758 0.00654791 -1.13839e-05)
(-0.0100822 0.00532125 -9.66656e-06)
(-0.0109478 0.00399465 -8.2805e-06)
(-0.0115685 0.00259247 -7.21236e-06)
(-0.0119396 0.00113421 -6.47234e-06)
(-0.012056 -0.000363721 -6.08242e-06)
(-0.0119094 -0.00188586 -5.9999e-06)
(-0.0114887 -0.00341347 -6.27435e-06)
(-0.0107822 -0.00492187 -6.86808e-06)
(-0.0097785 -0.00637711 -7.65478e-06)
(-0.00847122 -0.00773328 -8.35414e-06)
(-0.00686582 -0.00893108 -8.37863e-06)
(-0.00498968 -0.00989064 -6.66967e-06)
(-0.00285031 -0.0103856 -2.23462e-06)
(-0.000854912 -0.00859466 1.59019e-05)
(-0.000850433 0.00956634 -4.84755e-05)
(-0.00285967 0.0116571 -3.24793e-05)
(-0.00505372 0.0112249 -2.62639e-05)
(-0.00701934 0.010325 -2.13875e-05)
(-0.00876238 0.00917592 -1.77667e-05)
(-0.0102529 0.00783964 -1.48771e-05)
(-0.0114781 0.00636218 -1.24951e-05)
(-0.0124348 0.00477989 -1.0553e-05)
(-0.0131239 0.00311958 -9.03836e-06)
(-0.0135458 0.00140006 -7.96523e-06)
(-0.0136981 -0.000365263 -7.366e-06)
(-0.0135714 -0.00216536 -7.17129e-06)
(-0.0131497 -0.00398568 -7.48601e-06)
(-0.012412 -0.00580398 -8.29813e-06)
(-0.0113344 -0.0075847 -9.50203e-06)
(-0.00989506 -0.00927408 -1.07905e-05)
(-0.00808425 -0.0107961 -1.145e-05)
(-0.00592014 -0.0120416 -1.01121e-05)
(-0.00340548 -0.0127127 -5.39088e-06)
(-0.00102689 -0.0105578 1.61236e-05)
(-0.00100197 0.01152 -6.13129e-05)
(-0.00335748 0.0140103 -4.26582e-05)
(-0.00590643 0.0134442 -3.48533e-05)
(-0.00815975 0.0123145 -2.83855e-05)
(-0.0101299 0.0108972 -2.33645e-05)
(-0.0117914 0.00927629 -1.92605e-05)
(-0.0131421 0.00751132 -1.58583e-05)
(-0.0141905 0.00564561 -1.30877e-05)
(-0.0149484 0.00370725 -1.09266e-05)
(-0.0154245 0.00171171 -9.38293e-06)
(-0.0156215 -0.000334099 -8.50156e-06)
(-0.0155298 -0.00242797 -8.14566e-06)
(-0.0151274 -0.00456457 -8.52418e-06)
(-0.0143813 -0.0067295 -9.66328e-06)
(-0.0132486 -0.00889036 -1.15178e-05)
(-0.0116836 -0.0109878 -1.38003e-05)
(-0.00964927 -0.0129272 -1.56662e-05)
(-0.00714194 -0.0145602 -1.53248e-05)
(-0.00415123 -0.0154891 -1.06701e-05)
(-0.0012626 -0.0129306 1.49565e-05)
(-0.00120098 0.0138326 -7.95709e-05)
(-0.0040001 0.0167733 -5.73922e-05)
(-0.00698756 0.0160158 -4.70178e-05)
(-0.00957964 0.014583 -3.79446e-05)
(-0.0118012 0.0128274 -3.06326e-05)
(-0.0136389 0.0108629 -2.45936e-05)
(-0.0151088 0.00876607 -1.96244e-05)
(-0.016239 0.00658737 -1.56315e-05)
(-0.0170579 0.00435383 -1.25498e-05)
(-0.0175872 0.00207371 -1.03471e-05)
(-0.0178378 -0.000257595 -9.08487e-06)
(-0.0178019 -0.00265257 -8.49415e-06)
(-0.0174512 -0.00512219 -8.95127e-06)
(-0.0167378 -0.00766815 -1.05351e-05)
(-0.0155928 -0.0102701 -1.33322e-05)
(-0.0139331 -0.0128704 -1.71939e-05)
(-0.0116765 -0.0153565 -2.12267e-05)
(-0.00877252 -0.017531 -2.31329e-05)
(-0.00518061 -0.0188517 -1.93519e-05)
(-0.00159867 -0.0158648 1.07584e-05)
(-0.00147166 0.0166159 -0.000106455)
(-0.00484976 0.0200543 -7.93284e-05)
(-0.0083794 0.0190134 -6.44634e-05)
(-0.0113638 0.0171676 -5.09548e-05)
(-0.0138507 0.0149755 -3.98183e-05)
(-0.0158529 0.0125904 -3.06849e-05)
(-0.0174177 0.0101093 -2.33383e-05)
(-0.0186028 0.00758827 -1.75979e-05)
(-0.0194621 0.00504907 -1.32654e-05)
(-0.020036 0.00248699 -1.01578e-05)
(-0.0203478 -0.000121165 -8.11589e-06)
(-0.0203945 -0.00280867 -7.48625e-06)
(-0.020143 -0.00561353 -8.0313e-06)
(-0.0195292 -0.00856498 -1.01076e-05)
(-0.0184509 -0.0116691 -1.41168e-05)
(-0.0167714 -0.0148858 -2.03041e-05)
(-0.014335 -0.0180962 -2.80171e-05)
(-0.0109972 -0.021049 -3.4626e-05)
(-0.00665687 -0.0229855 -3.33944e-05)
(-0.00210585 -0.0195979 -9.25728e-08)
(-0.00185875 0.0200384 -0.000147726)
(-0.00601121 0.0239979 -0.000112967)
(-0.0102088 0.0225229 -8.96511e-05)
(-0.0136356 0.0200974 -6.83486e-05)
(-0.0163793 0.0173313 -5.07398e-05)
(-0.0185053 0.0144265 -3.67027e-05)
(-0.0201112 0.0115016 -2.58754e-05)
(-0.0212994 0.00861306 -1.77956e-05)
(-0.0221592 0.0057697 -1.19305e-05)
(-0.0227576 0.00294614 -7.78341e-06)
(-0.0231336 9.20541e-05 -4.74532e-06)
(-0.0232944 -0.00285483 -3.99439e-06)
(-0.0232076 -0.0059713 -4.40553e-06)
(-0.0227934 -0.00932968 -6.75755e-06)
(-0.0219136 -0.0129842 -1.20277e-05)
(-0.0203619 -0.0169417 -2.12869e-05)
(-0.0178716 -0.021109 -3.47911e-05)
(-0.0141141 -0.0252079 -5.08432e-05)
(-0.00887976 -0.0281368 -5.55552e-05)
(-0.00292925 -0.0245271 -2.57908e-05)
(-0.00245099 0.0243305 -0.000213329)
(-0.00767033 0.0287835 -0.000165495)
(-0.012675 0.0266373 -0.00012566)
(-0.0165764 0.0233792 -9.04571e-05)
(-0.0195229 0.019849 -6.18754e-05)
(-0.0216828 0.0163017 -4.0326e-05)
(-0.0232313 0.0128712 -2.47908e-05)
(-0.0243349 0.00960068 -1.3968e-05)
(-0.0251291 0.00647408 -6.58569e-06)
(-0.0257137 0.00343504 -1.64345e-06)
(-0.0261488 0.000398672 1.63466e-06)
(-0.0264579 -0.00273896 3.76055e-06)
(-0.0266179 -0.00610183 4.35023e-06)
(-0.0265421 -0.0098243 2.63967e-06)
(-0.0260628 -0.0140396 -3.07691e-06)
(-0.0248982 -0.0188489 -1.53657e-05)
(-0.0226421 -0.024251 -3.69883e-05)
(-0.0186069 -0.0300526 -7.17745e-05)
(-0.0124259 -0.0345815 -8.98154e-05)
(-0.00438835 -0.0314164 -8.32797e-05)
(-0.00340269 0.0302075 -0.000333318)
(-0.0101266 0.0347538 -0.000252919)
(-0.0160779 0.031476 -0.000176411)
(-0.0204484 0.0269733 -0.000115151)
(-0.0234582 0.0224235 -6.80807e-05)
(-0.0254835 0.0180904 -3.59682e-05)
(-0.0268123 0.0140991 -1.50712e-05)
(-0.0276963 0.0104541 -1.95177e-06)
(-0.0283246 0.00709467 6.30409e-06)
(-0.0288326 0.00392051 1.18868e-05)
(-0.0293072 0.000804963 1.59916e-05)
(-0.0297945 -0.00240397 1.98043e-05)
(-0.0302925 -0.00588623 2.29828e-05)
(-0.0307306 -0.00985418 2.4496e-05)
(-0.0309373 -0.0145543 2.15637e-05)
(-0.030575 -0.0202499 8.68873e-06)
(-0.0291254 -0.0271397 -2.08744e-05)
(-0.0252244 -0.0354067 -9.02152e-05)
(-0.0185022 -0.0424522 -0.000132938)
(-0.00730184 -0.041691 -0.000212211)
(-0.00533362 0.0364288 -0.000484736)
(-0.0143354 0.0415459 -0.000374068)
(-0.0209975 0.0368863 -0.000231681)
(-0.0256574 0.0306968 -0.000129277)
(-0.0284053 0.0248378 -5.4775e-05)
(-0.0300045 0.0195783 -1.08389e-05)
(-0.0308629 0.0150009 1.36235e-05)
(-0.0313331 0.0110299 2.65017e-05)
(-0.0316551 0.00753235 3.3402e-05)
(-0.0319945 0.00434874 3.8023e-05)
(-0.032463 0.00130431 4.2681e-05)
(-0.0331373 -0.0017966 4.90957e-05)
(-0.0340544 -0.00518864 5.8342e-05)
(-0.0351939 -0.00916162 6.95892e-05)
(-0.036438 -0.0140971 8.02096e-05)
(-0.0374606 -0.0205249 8.06251e-05)
(-0.0378166 -0.0289621 5.96235e-05)
(-0.0349716 -0.0408044 -6.0036e-05)
(-0.0294146 -0.0515944 -0.000124951)
(-0.0134611 -0.0581879 -0.000475832)
(-0.00720074 0.0530252 -0.00101441)
(-0.0192274 0.0513735 -0.000627394)
(-0.0275324 0.0435724 -0.000304139)
(-0.0325195 0.0343691 -0.000103996)
(-0.0345241 0.0267173 1.24669e-05)
(-0.0352337 0.0204071 6.29275e-05)
(-0.0352441 0.0152893 8.21372e-05)
(-0.0350232 0.0111167 8.65102e-05)
(-0.0348421 0.00764 8.57326e-05)
(-0.0348768 0.00462361 8.5621e-05)
(-0.0352489 0.00184323 9.00789e-05)
(-0.0360624 -0.000934715 0.000100659)
(-0.0374066 -0.00395778 0.000124013)
(-0.039352 -0.00762661 0.000159999)
(-0.0419546 -0.012498 0.000214696)
(-0.0449964 -0.0196062 0.000270118)
(-0.0487939 -0.0297718 0.00033636)
(-0.0484258 -0.0468024 0.000141675)
(-0.048029 -0.0638801 9.585e-05)
(-0.0244865 -0.0871419 -0.000962354)
(-0.0181526 0.0557939 -0.00133301)
(-0.0372475 0.0622378 -0.000937945)
(-0.0382427 0.0502463 -0.000239816)
(-0.0417518 0.0380918 4.82702e-05)
(-0.0409269 0.028213 0.000204307)
(-0.0394861 0.0205917 0.000241409)
(-0.0378101 0.0149198 0.000231807)
(-0.0363325 0.0106656 0.000206641)
(-0.0352544 0.00738279 0.000183372)
(-0.0346922 0.00473507 0.000169768)
(-0.0347346 0.00246661 0.000169693)
(-0.0354602 0.000347371 0.000187401)
(-0.0370509 -0.00182526 0.000230732)
(-0.0397442 -0.00440455 0.00030259)
(-0.043979 -0.00754787 0.000430758)
(-0.0494447 -0.0131303 0.000566774)
(-0.0580785 -0.0197988 0.000843059)
(-0.060116 -0.0417578 0.000639525)
(-0.0684248 -0.0617706 0.00085207)
(-0.0280153 -0.129568 -0.00127802)
(-0.0506979 0.123705 -0.00255931)
(-0.0482036 0.0617266 -0.000262074)
(-0.0416969 0.0477564 0.000535393)
(-0.0330861 0.0326269 0.000922161)
(-0.023476 0.0220839 0.000923939)
(-0.0157778 0.0155006 0.000758753)
(-0.00966845 0.0110409 0.000594287)
(-0.00512466 0.0078513 0.000464515)
(-0.00190612 0.00551143 0.000374223)
(0.000210329 0.00373131 0.000321402)
(0.00136181 0.00230406 0.00030889)
(0.00163421 0.00105967 0.000335225)
(0.000946786 -0.000173616 0.000423941)
(-0.000330762 -0.00176353 0.000566569)
(-0.00339849 -0.00409273 0.00100102)
(-0.00414626 -0.0097827 0.00130024)
(-0.0145845 -0.0203632 0.00274237)
(-0.00425879 -0.0513356 0.00239189)
(-0.0363356 -0.102901 0.00401866)
(0.0163231 -0.211863 -0.00243109)
(0.129977 0.125556 -0.00406711)
(0.149569 0.0633306 -0.00288303)
(0.220556 0.0393566 -0.00108942)
(0.253293 0.0246858 0.000144883)
(0.273848 0.0149123 0.000576463)
(0.288447 0.00923878 0.000647893)
(0.298503 0.0060299 0.000598464)
(0.305426 0.00409122 0.000505646)
(0.310289 0.00284379 0.000416642)