/*--------------------------------*- C++ -*----------------------------------*\
  =========                 |
  \\      /  F ield         | OpenFOAM: The Open Source CFD Toolbox
   \\    /   O peration     | Website:  https://openfoam.org
    \\  /    A nd           | Version:  10
     \\/     M anipulation  |
\*---------------------------------------------------------------------------*/
FoamFile
{
    format      ascii;
    class       volScalarField;
    location    "6.025";
    object      p;
}
// * * * * * * * * * * * * * * * * * * * * * * * * * * * * * * * * * * * * * //

dimensions      [0 2 -2 0 0 0 0];

internalField   nonuniform List<scalar> 
400
(
4.91682e-07
-1.96385e-05
2.4182e-05
0.000109094
0.000241424
0.00042261
0.000654566
0.000939328
0.00127813
0.00167064
0.00211391
0.00260126
0.00312095
0.00365514
0.00417906
0.00466172
0.00506756
0.00536088
0.00553289
0.00551834
2.27545e-05
1.64813e-06
4.95237e-05
0.000134359
0.000264016
0.000440674
0.000666746
0.000944646
0.00127598
0.00166085
0.0020969
0.00257803
0.00309296
0.00362525
0.00415033
0.00463703
0.00504871
0.00534868
0.00552981
0.0055116
-2.62692e-05
-5.41468e-05
-8.0003e-06
7.34088e-05
0.000198754
0.000370496
0.000591598
0.000865305
0.00119429
0.00157995
0.00202135
0.00251409
0.00304919
0.00360978
0.0041706
0.0046976
0.00514867
0.005479
0.00567888
0.00564746
-0.000127422
-0.000160203
-0.000116867
-4.04755e-05
7.85745e-05
0.000243196
0.000457214
0.000725128
0.00105128
0.00143916
0.00189031
0.00240286
0.00296983
0.00357705
0.00419832
0.00479534
0.00531632
0.00570178
0.00593662
0.00589128
-0.00028646
-0.000323856
-0.000284746
-0.000215233
-0.00010473
5.02624e-05
0.000254663
0.000514578
0.000836563
0.00122702
0.00169109
0.00223091
0.0028432
0.00351715
0.00422665
0.00492853
0.00555859
0.00603375
0.00632657
0.00626165
-0.000502678
-0.000545179
-0.00051183
-0.000451493
-0.000352615
-0.000211077
-2.07479e-05
0.000226322
0.000539327
0.000928349
0.00140347
0.00197271
0.00263861
0.00339731
0.00422542
0.00507606
0.00586874
0.00648595
0.0068738
0.00677834
-0.000774288
-0.000822835
-0.000796988
-0.000748738
-0.000665651
-0.000543103
-0.000373819
-0.000147977
0.000146473
0.000523874
0.00100047
0.0015928
0.00231454
0.00316683
0.00414216
0.00519345
0.00622284
0.00706542
0.007614
0.00747307
-0.00109917
-0.00115499
-0.00113858
-0.00110588
-0.00104379
-0.000947488
-0.000808924
-0.000616742
-0.000356243
-8.77108e-06
0.000448672
0.00104313
0.00180255
0.0027477
0.0038864
0.00519102
0.00655574
0.00775849
0.00859397
0.00839885
-0.00147461
-0.00153905
-0.00153397
-0.00152051
-0.00148524
-0.00142377
-0.00132804
-0.00118604
-0.000981392
-0.000692104
-0.000289056
0.00026542
0.00101733
0.00201669
0.003297
0.00488491
0.00670083
0.0084857
0.00984734
0.00966247
-0.00189723
-0.00197163
-0.00197922
-0.00198825
-0.00198551
-0.00196792
-0.00192855
-0.00185633
-0.00173535
-0.00154279
-0.00124632
-0.000800959
-0.000144886
0.000799073
0.00211178
0.003918
0.00623789
0.008923
0.0112418
0.0113504
-0.00236327
-0.00244878
-0.00246897
-0.00250228
-0.00253647
-0.00257082
-0.00260112
-0.00261931
-0.00261304
-0.00256369
-0.00244347
-0.00221029
-0.00180026
-0.00112043
-4.54902e-05
0.00152134
0.00407632
0.00786656
0.011838
0.0131332
-0.00286956
-0.00296666
-0.00299649
-0.00305289
-0.00312533
-0.00321667
-0.00332704
-0.00345382
-0.00359211
-0.00373374
-0.00386603
-0.00397042
-0.00402057
-0.00398491
-0.00384643
-0.00348625
-0.00229392
0.00174387
0.00788071
0.0122661
-0.00341547
-0.00352393
-0.00355661
-0.00363042
-0.00373667
-0.00388364
-0.00407769
-0.00432368
-0.00462817
-0.00500099
-0.00545848
-0.00603083
-0.00678063
-0.00785984
-0.00964979
-0.0124548
-0.0151867
-0.0125421
-0.00508669
0.00434099
-0.00400045
-0.00411136
-0.0041275
-0.00420427
-0.00433508
-0.00453211
-0.00480546
-0.00516866
-0.00564143
-0.00625534
-0.00706566
-0.00817598
-0.00979328
-0.0123118
-0.0167001
-0.023661
-0.0328341
-0.0328571
-0.0250405
-0.00998982
-0.00465754
-0.00478239
-0.0047667
-0.00483486
-0.00496386
-0.00517985
-0.00550152
-0.00595144
-0.00656162
-0.00738308
-0.00850478
-0.0100857
-0.0124741
-0.0162102
-0.0227144
-0.0325369
-0.0465642
-0.0491878
-0.042196
-0.0234422
-0.00546677
-0.00539631
-0.00527038
-0.00524818
-0.00535555
-0.00559825
-0.00598077
-0.00651663
-0.00723696
-0.0081971
-0.00949903
-0.0113109
-0.0140777
-0.0182315
-0.0254942
-0.0351853
-0.0507143
-0.0525799
-0.046918
-0.0244714
-0.00596
-0.00639483
-0.00612135
-0.00615079
-0.00616682
-0.00631451
-0.00661106
-0.00708751
-0.00777912
-0.00873252
-0.0100435
-0.0118143
-0.0145248
-0.0184851
-0.0250634
-0.033445
-0.0440967
-0.0454026
-0.0382534
-0.00735971
-0.00932807
-0.00682007
-0.00622167
-0.00568403
-0.00565303
-0.00587966
-0.00630867
-0.00690467
-0.0076833
-0.0086669
-0.00996832
-0.0116046
-0.0140488
-0.0173925
-0.0224505
-0.0279708
-0.0339384
-0.0314999
-0.0186278
0.0286345
-0.00607048
-0.00906952
-0.00805294
-0.00811485
-0.00771851
-0.00753497
-0.00754258
-0.0077793
-0.00827531
-0.00902164
-0.010113
-0.0115574
-0.0138062
-0.016723
-0.0215579
-0.0260135
-0.0299422
-0.0182028
0.00997376
0.0895824
-0.0312121
-0.00621133
-0.00477959
-0.00407604
-0.00392339
-0.00419424
-0.00477944
-0.0054942
-0.0063978
-0.00743322
-0.00885476
-0.0105031
-0.012885
-0.0154848
-0.0183277
-0.0180204
-0.011125
0.0210395
0.0910388
0.225849
)
;

boundaryField
{
    movingWall
    {
        type            zeroGradient;
    }
    fixedWalls
    {
        type            zeroGradient;
    }
    frontAndBack
    {
        type            empty;
    }
}


// ************************************************************************* //
