/*--------------------------------*- C++ -*----------------------------------*\
  =========                 |
  \\      /  F ield         | OpenFOAM: The Open Source CFD Toolbox
   \\    /   O peration     | Website:  https://openfoam.org
    \\  /    A nd           | Version:  10
     \\/     M anipulation  |
\*---------------------------------------------------------------------------*/
FoamFile
{
    format      ascii;
    class       surfaceScalarField;
    location    "9.55";
    object      phi;
}
// * * * * * * * * * * * * * * * * * * * * * * * * * * * * * * * * * * * * * //

dimensions      [0 3 -1 0 0 0 0];

internalField   nonuniform List<scalar> 
760
(
-1.41172e-05
1.41171e-05
-4.57264e-05
3.16093e-05
-8.3903e-05
3.81765e-05
-0.000124467
4.05645e-05
-0.000166231
4.17635e-05
-0.000208971
4.27399e-05
-0.000252445
4.34743e-05
-0.000295979
4.35336e-05
-0.000338229
4.22498e-05
-0.000376958
3.87293e-05
-0.000408844
3.18864e-05
-0.000429405
2.05607e-05
-0.000433193
3.78809e-06
-0.000414329
-1.88638e-05
-0.000368436
-4.58936e-05
-0.000295085
-7.33501e-05
-0.000201197
-9.38882e-05
-0.000103263
-9.79344e-05
-2.59749e-05
-7.7288e-05
-2.59749e-05
-3.45852e-05
4.87023e-05
-9.7577e-05
9.4601e-05
-0.000171515
0.000112115
-0.000249462
0.000118511
-0.000328876
0.000121177
-0.000408653
0.000122517
-0.00048771
0.000122532
-0.000564348
0.000120171
-0.00063588
0.000113783
-0.000698347
0.000101196
-0.000746304
7.98432e-05
-0.000772674
4.6931e-05
-0.000769972
1.08602e-06
-0.000729496
-5.93405e-05
-0.000645446
-0.000129943
-0.000517816
-0.00020098
-0.000357429
-0.000254275
-0.000190357
-0.000265007
-5.57439e-05
-0.000211901
-8.17187e-05
-4.42814e-05
9.29837e-05
-0.000122431
0.000172751
-0.000213196
0.00020288
-0.000308216
0.000213531
-0.000404433
0.000217394
-0.000500467
0.000218551
-0.00059502
0.000217085
-0.00068618
0.000211331
-0.000771026
0.000198629
-0.000845278
0.000175447
-0.000902967
0.000137532
-0.000936458
8.04219e-05
-0.000936244
8.72892e-07
-0.000891288
-0.000104297
-0.000792677
-0.000228553
-0.000637465
-0.000356193
-0.000436868
-0.000454872
-0.000225883
-0.000475991
-6.12674e-05
-0.000376517
-0.000142986
-4.8069e-05
0.000141053
-0.00013283
0.000257512
-0.000230976
0.000301025
-0.000333542
0.000316096
-0.000437469
0.000321321
-0.000541589
0.000322671
-0.000644926
0.000320421
-0.000745998
0.000312404
-0.000842385
0.000295016
-0.000930272
0.000263335
-0.00100387
0.000211133
-0.00105479
0.000131335
-0.00107169
1.77747e-05
-0.00103974
-0.000136246
-0.000942437
-0.000325856
-0.000768042
-0.000530588
-0.000522565
-0.000700349
-0.000253746
-0.000744811
-5.55846e-05
-0.000574678
-0.000198571
-4.88211e-05
0.000189874
-0.000135842
0.000344533
-0.000236879
0.000402062
-0.000342793
0.000422011
-0.000450803
0.000429331
-0.000560266
0.000432135
-0.000670945
0.0004311
-0.00078231
0.000423768
-0.00089306
0.000405767
-0.00100053
0.00037081
-0.00109983
0.000310428
-0.00118252
0.000214028
-0.00123498
7.02367e-05
-0.00123762
-0.000133609
-0.00116191
-0.000401566
-0.000977257
-0.000715243
-0.000671346
-0.00100626
-0.00030484
-0.00111132
-4.66048e-05
-0.000832913
-0.000245176
-4.80586e-05
0.000237932
-0.000135136
0.000431611
-0.00023688
0.000503806
-0.000344164
0.000529294
-0.000454605
0.000539772
-0.000568304
0.000545834
-0.000686087
0.000548883
-0.000808839
0.00054652
-0.000937067
0.000533995
-0.00107024
0.000503979
-0.00120566
0.000445854
-0.00133674
0.000345103
-0.00144995
0.00018345
-0.00152289
-6.06689e-05
-0.00150899
-0.00041547
-0.00134104
-0.000883193
-0.000960149
-0.00138715
-0.000434631
-0.00163683
-5.33578e-05
-0.00121419
-0.000298533
-4.64208e-05
0.000284353
-0.000132268
0.000517458
-0.000233365
0.000604904
-0.000340637
0.000636566
-0.000452127
0.000651262
-0.000568769
0.000662477
-0.000692687
0.000672801
-0.000826641
0.000680474
-0.000973738
0.000681092
-0.001137
0.000667241
-0.00131842
0.000627277
-0.0015173
0.000543983
-0.00172642
0.000392565
-0.00192302
0.000135931
-0.00204092
-0.000297564
-0.00194277
-0.00098135
-0.00148906
-0.00184086
-0.000755893
-0.00237
-0.000141791
-0.00182829
-0.000440324
-4.41226e-05
0.000328476
-0.000127762
0.000601097
-0.000227015
0.000704157
-0.000332768
0.000742318
-0.000443415
0.000761909
-0.000560701
0.000779762
-0.000688106
0.000800205
-0.000830535
0.000822903
-0.000994471
0.000845028
-0.00118813
0.000860897
-0.00142142
0.000860571
-0.00170572
0.000828285
-0.0020494
0.000736244
-0.00243114
0.000517666
-0.00275468
2.59755e-05
-0.00277674
-0.000959283
-0.00229578
-0.00232182
-0.00140756
-0.00325822
-0.000444829
-0.00279102
-0.000885153
-4.12936e-05
0.000369769
-0.000121891
0.000681694
-0.00021805
0.000800317
-0.000320424
0.000844693
-0.000427567
0.000869052
-0.00054185
0.000894045
-0.000667935
0.000926291
-0.000812766
0.000967734
-0.000986338
0.0010186
-0.00120312
0.00107768
-0.00148414
0.00114159
-0.00185741
0.00120156
-0.00234816
0.00122699
-0.00292996
0.00109947
-0.003434
0.000530013
-0.00358701
-0.000806277
-0.00320439
-0.00270445
-0.00234074
-0.00412186
-0.00103443
-0.00409733
-0.00191958
-3.81928e-05
0.000407962
-0.000115174
0.000758675
-0.00020701
0.000892152
-0.000303861
0.000941544
-0.000404137
0.000969328
-0.000510481
0.00100039
-0.000628227
0.00104404
-0.000765626
0.00110513
-0.000935236
0.00118821
-0.0011565
0.00129895
-0.0014593
0.00144439
-0.00188277
0.00162502
-0.00245123
0.00179546
-0.0031129
0.00176114
-0.00366971
0.00108683
-0.00387929
-0.000596698
-0.00369157
-0.00289217
-0.00304804
-0.00476539
-0.00168233
-0.00546304
-0.00360192
-3.53369e-05
0.000443299
-0.000108674
0.000832012
-0.000195216
0.000978695
-0.000284344
0.00103067
-0.000373998
0.00105898
-0.000466577
0.00109297
-0.000567159
0.00114462
-0.000683686
0.00122166
-0.000828424
0.00133295
-0.0010204
0.00149092
-0.00128765
0.00171164
-0.00166201
0.00199938
-0.00214817
0.00228162
-0.0026721
0.00228507
-0.00309191
0.00150664
-0.00328348
-0.000405123
-0.00327496
-0.00290069
-0.00292907
-0.00511128
-0.00187702
-0.00651509
-0.00547894
-3.37663e-05
0.000477065
-0.00010447
0.000902716
-0.000185286
0.00105951
-0.00026467
0.00111006
-0.000340045
0.00113436
-0.000413108
0.00116603
-0.000487619
0.00121913
-0.000569133
0.00130317
-0.000665652
0.00142947
-0.000788293
0.00161356
-0.000950589
0.00187393
-0.00116217
0.00221096
-0.00141411
0.00253355
-0.00165925
0.00253021
-0.00186081
0.0017082
-0.00200204
-0.000263892
-0.00214272
-0.00276001
-0.00215999
-0.005094
-0.00157186
-0.00710321
-0.0070508
-3.46516e-05
0.000511717
-0.00010502
0.000973084
-0.000180811
0.0011353
-0.000249539
0.00117878
-0.000308019
0.00119284
-0.000357133
0.00121514
-0.000398942
0.00126094
-0.0004355
0.00133973
-0.000468669
0.00146264
-0.00049894
0.00164383
-0.000523334
0.00189833
-0.000531989
0.00221962
-0.000518322
0.00251989
-0.000488645
0.00250053
-0.000502292
0.00172184
-0.000639788
-0.000126396
-0.000946723
-0.00245308
-0.00129053
-0.0047502
-0.00113119
-0.00726255
-0.00818199
-4.22143e-05
0.000553931
-0.000117252
0.00104812
-0.000188406
0.00120646
-0.000244211
0.00123459
-0.000283317
0.00123194
-0.000306436
0.00123826
-0.000313517
0.00126802
-0.000303367
0.00132958
-0.000272498
0.00143177
-0.000212774
0.00158411
-0.000109089
0.00179464
5.6302e-05
0.00205423
0.000285564
0.00229063
0.000523723
0.00226237
0.000646198
0.00159937
0.000491114
2.86882e-05
4.96015e-05
-0.00201157
-0.00060014
-0.00410046
-0.000793274
-0.00706942
-0.00897527
-5.27231e-05
0.000606654
-0.000136921
0.00113232
-0.000209161
0.0012787
-0.00025828
0.00128371
-0.000280677
0.00125434
-0.000278055
0.00123564
-0.000250742
0.00124071
-0.000196327
0.00127517
-0.000109004
0.00134444
2.37924e-05
0.00145131
0.00021513
0.00160331
0.000487202
0.00178215
0.000842958
0.00193487
0.00121175
0.00189358
0.00142114
0.00138998
0.00127006
0.000179765
0.000719157
-0.00146066
-0.000105667
-0.00327563
-0.000516826
-0.00665826
-0.00949209
-0.00012059
0.000727244
-0.000218858
0.00123059
-0.000274099
0.00133394
-0.000294447
0.00130406
-0.000288253
0.00124815
-0.000258367
0.00120576
-0.000202441
0.00118478
-0.000114994
0.00118772
1.21096e-05
0.00121734
0.000188232
0.00127519
0.000429907
0.00136163
0.000750586
0.00146147
0.00114442
0.00154103
0.00154797
0.00149003
0.00179398
0.00114397
0.00166768
0.000306066
0.00109869
-0.000891674
0.000208917
-0.00238586
-0.000305618
-0.00614373
-0.00979771
-7.76318e-05
0.000804876
-0.000242631
0.00139559
-0.000336594
0.0014279
-0.000366497
0.00133396
-0.000350859
0.00123251
-0.00030033
0.00115523
-0.000217299
0.00110175
-9.86015e-05
0.00106902
6.14596e-05
0.00105728
0.000272534
0.00106412
0.000543113
0.00109105
0.000880434
0.00112415
0.00127025
0.00115122
0.00166012
0.00110016
0.00191022
0.000893872
0.00181584
0.000400443
0.0013321
-0.000407932
0.000565607
-0.00161937
6.93499e-05
-0.00564747
-0.00972836
-0.000374485
0.00117936
-0.000418977
0.00144008
-0.000448053
0.00145698
-0.000463263
0.00134917
-0.000429912
0.00119916
-0.000354614
0.00107993
-0.000240376
0.000987511
-8.49141e-05
0.000913561
0.000111076
0.000861289
0.000353569
0.000821624
0.000642133
0.000802487
0.000979223
0.000787063
0.0013473
0.000783147
0.00169685
0.000750613
0.00195337
0.000637351
0.00197104
0.000382771
0.00181004
-0.000246936
0.0014616
-0.00127092
0.000829778
-0.00501565
-0.00889858
-0.00136299
0.00254235
-0.00132064
0.00139772
-0.00105171
0.00118805
-0.000669477
0.00096694
-0.000267761
0.000797441
0.000137747
0.000674421
0.000536588
0.000588669
0.000929081
0.000521068
0.00131699
0.000473377
0.00170612
0.000432498
0.00210177
0.000406837
0.00250634
0.000382497
0.00292674
0.000362742
0.00334589
0.000331465
0.00373271
0.000250535
0.00399958
0.0001159
0.00407646
-0.000323822
0.00393993
-0.00113439
0.00250211
-0.00357783
-0.00639647
0.00254235
0.00394008
0.00512812
0.00609506
0.0068925
0.00756692
0.00815559
0.00867666
0.00915004
0.00958254
0.00998937
0.0103719
0.0107346
0.0110661
0.0113166
0.0114325
0.0111087
0.0099743
0.00639647
)
;

boundaryField
{
    movingWall
    {
        type            calculated;
        value           uniform 0;
    }
    fixedWalls
    {
        type            calculated;
        value           uniform 0;
    }
    frontAndBack
    {
        type            empty;
        value           nonuniform List<scalar> 0();
    }
}


// ************************************************************************* //
