/*--------------------------------*- C++ -*----------------------------------*\
  =========                 |
  \\      /  F ield         | OpenFOAM: The Open Source CFD Toolbox
   \\    /   O peration     | Website:  https://openfoam.org
    \\  /    A nd           | Version:  10
     \\/     M anipulation  |
\*---------------------------------------------------------------------------*/
FoamFile
{
    format      ascii;
    class       volScalarField;
    location    "7.6";
    object      p;
}
// * * * * * * * * * * * * * * * * * * * * * * * * * * * * * * * * * * * * * //

dimensions      [0 2 -2 0 0 0 0];

internalField   nonuniform List<scalar> 
400
(
-3.5133e-09
-2.26082e-05
3.19106e-05
0.000136743
0.000299135
0.000521499
0.000807331
0.00116083
0.00158569
0.00208389
0.00265436
0.00329086
0.00397961
0.00469663
0.00540572
0.00605886
0.00659964
0.00697437
0.00717659
0.00712355
2.46019e-05
1.45302e-06
6.21086e-05
0.000168342
0.000328929
0.0005471
0.000826845
0.00117263
0.00158839
0.00207655
0.00263673
0.00326363
0.00394381
0.00465643
0.00536532
0.00602225
0.00656842
0.00694758
0.00715679
0.00709126
-3.92141e-05
-7.03887e-05
-1.15615e-05
9.04315e-05
0.000245159
0.000456131
0.000727948
0.00106605
0.00147579
0.0019615
0.00252508
0.00316395
0.00386911
0.0046199
0.0053793
0.00609345
0.0066919
0.0071028
0.00732293
0.00721666
-0.000171163
-0.000208018
-0.00015281
-5.76457e-05
8.793e-05
0.000287873
0.000547714
0.000874342
0.00127524
0.00175778
0.00232783
0.00298736
0.00373077
0.00454329
0.00538692
0.00620021
0.00689361
0.00736316
0.00760409
0.00742988
-0.0003784
-0.000420204
-0.000370907
-0.000285647
-0.000153073
3.13331e-05
0.000274227
0.000584295
0.000971709
0.00144782
0.00202412
0.00270964
0.00350704
0.00440404
0.0053697
0.00633289
0.00717697
0.0077449
0.00801853
0.00772074
-0.000659643
-0.000706542
-0.000665505
-0.000593635
-0.000478854
-0.000316149
-9.77652e-05
0.000186817
0.000550694
0.00100972
0.00158216
0.00228694
0.00313825
0.00413702
0.00526186
0.00643856
0.00751637
0.00824998
0.0085742
0.00805012
-0.00101105
-0.00106375
-0.00103347
-0.000979088
-0.000888093
-0.000755314
-0.000572316
-0.000327188
-4.31243e-06
0.000416519
0.000960778
0.00165912
0.00254305
0.00363271
0.00493967
0.00639847
0.00782964
0.00885568
0.00925624
0.00834846
-0.00142758
-0.0014871
-0.00147015
-0.00143782
-0.00137757
-0.00128473
-0.00115114
-0.000964742
-0.000708818
-0.0003604
0.0001118
0.000749801
0.00160724
0.00274153
0.00418147
0.00594463
0.00786889
0.00943789
0.00995379
0.00854665
-0.0019028
-0.00197025
-0.0019689
-0.00196302
-0.0019407
-0.00189868
-0.00183053
-0.00172618
-0.00157105
-0.00134383
-0.00101325
-0.000534298
0.000157167
0.00114522
0.00252648
0.00440824
0.00686613
0.00942772
0.0101983
0.00861953
-0.00242891
-0.00250526
-0.00252075
-0.00254452
-0.00256612
-0.00258498
-0.00259828
-0.00260071
-0.00258423
-0.00253669
-0.00243984
-0.00226581
-0.00197461
-0.00151382
-0.000792823
0.000445347
0.00288613
0.00676563
0.00858498
0.00850923
-0.00299713
-0.00308305
-0.00311451
-0.00316847
-0.00323686
-0.00332318
-0.00343036
-0.00356116
-0.00371962
-0.00391236
-0.00415148
-0.00446114
-0.00490351
-0.00563992
-0.00686054
-0.00823911
-0.00752652
-0.00251763
0.002615
0.00678294
-0.00359886
-0.00369411
-0.00373655
-0.00381659
-0.00392901
-0.0040828
-0.004288
-0.00455793
-0.00491354
-0.00538982
-0.00604916
-0.00700911
-0.00850921
-0.011087
-0.0154828
-0.0214576
-0.0243954
-0.0188656
-0.00971728
-0.000317315
-0.00422886
-0.00433304
-0.00437735
-0.00447374
-0.00461932
-0.0048302
-0.00512448
-0.00552626
-0.00607505
-0.0068379
-0.00793537
-0.00959312
-0.0122616
-0.0168022
-0.0244499
-0.0347595
-0.0419526
-0.0371729
-0.0262085
-0.0126691
-0.0048813
-0.00498481
-0.00500689
-0.00509851
-0.00525908
-0.00550918
-0.00587022
-0.00637474
-0.00707437
-0.00805634
-0.00947833
-0.0116165
-0.0150527
-0.0206748
-0.0298618
-0.041606
-0.0505692
-0.0465437
-0.0370908
-0.0226384
-0.00558511
-0.0056968
-0.00567619
-0.00574458
-0.00588539
-0.00613256
-0.00651231
-0.00706038
-0.00783104
-0.0089119
-0.0104676
-0.01274
-0.0163678
-0.0218934
-0.0307616
-0.0411119
-0.0489346
-0.0450597
-0.0384029
-0.0240254
-0.00642223
-0.0063387
-0.00619468
-0.00615323
-0.00624852
-0.00648995
-0.0068865
-0.00745838
-0.00824909
-0.00932894
-0.0108491
-0.0129542
-0.016202
-0.0208681
-0.0277662
-0.0350558
-0.0402796
-0.0363239
-0.0322824
-0.015565
-0.0069014
-0.00731936
-0.00700745
-0.00699838
-0.00697262
-0.00708656
-0.00735447
-0.00780911
-0.00849055
-0.00944335
-0.0107921
-0.0126374
-0.0153286
-0.0188979
-0.023905
-0.0284644
-0.0315207
-0.0267606
-0.021917
0.00374407
-0.0102815
-0.00775256
-0.00709471
-0.00648371
-0.00639001
-0.0065534
-0.00691698
-0.00744357
-0.00815431
-0.00906403
-0.0102961
-0.0119126
-0.0141523
-0.016923
-0.0205054
-0.0230457
-0.0239296
-0.0172813
-0.00611883
0.0370406
-0.00694774
-0.00993655
-0.0088358
-0.00882456
-0.00834671
-0.00809232
-0.00802527
-0.00817372
-0.00857997
-0.00923748
-0.0102614
-0.0116342
-0.0137459
-0.0162852
-0.0198421
-0.0218905
-0.0216843
-0.00788289
0.0185246
0.0953169
-0.0321752
-0.00711151
-0.00555475
-0.00478909
-0.00457773
-0.00478044
-0.00528776
-0.00589964
-0.00671091
-0.00764419
-0.00894408
-0.0104737
-0.0125387
-0.0145238
-0.016191
-0.0138837
-0.00434705
0.0295457
0.0968278
0.227977
)
;

boundaryField
{
    movingWall
    {
        type            zeroGradient;
    }
    fixedWalls
    {
        type            zeroGradient;
    }
    frontAndBack
    {
        type            empty;
    }
}


// ************************************************************************* //
