/*--------------------------------*- C++ -*----------------------------------*\
  =========                 |
  \\      /  F ield         | OpenFOAM: The Open Source CFD Toolbox
   \\    /   O peration     | Website:  https://openfoam.org
    \\  /    A nd           | Version:  10
     \\/     M anipulation  |
\*---------------------------------------------------------------------------*/
FoamFile
{
    format      ascii;
    class       volScalarField;
    location    "7.925";
    object      p;
}
// * * * * * * * * * * * * * * * * * * * * * * * * * * * * * * * * * * * * * //

dimensions      [0 2 -2 0 0 0 0];

internalField   nonuniform List<scalar> 
496
(
25.4832
24.8383
21.0261
15.0579
26.7433
26.2291
21.66
15.2208
31.7355
29.3221
21.8093
11.5682
38.899
36.2315
32.6009
17.948
6.95171
-2.46188
6.3013
-2.92125
-3.93473
-10.576
-31.8974
-55.2822
-10.2435
-15.7914
-18.9561
-20.3937
-11.1132
-17.4607
-21.2992
-23.1317
-7.11321
-10.0472
-15.6472
-20.4947
-26.7057
-18.8115
-20.8836
-21.8749
-20.8863
-21.0966
-20.7513
-19.636
-17.9726
-16.3642
-15.4198
-14.5421
-13.6358
-12.3283
-11.2998
-11.1419
-11.4539
-11.2688
-10.1184
-9.51477
-9.52048
-9.85826
-9.56966
-8.67331
-7.90241
-7.30464
-7.31753
-6.96598
-6.26015
-5.35069
-4.5182
-4.10709
-3.47659
-3.08081
-2.63422
-2.48312
-2.43563
-2.25705
-2.26243
-2.04086
-1.92676
-1.64596
-1.11551
-0.459884
-23.8333
-23.553
-22.025
-19.9546
-18.0687
-16.69
-15.5126
-14.4567
-13.5053
-12.152
-11.1316
-11.0112
-11.4151
-11.222
-10.3619
-9.7551
-9.50406
-9.66015
-9.34502
-8.62492
-7.91839
-7.36319
-7.27073
-6.86479
-6.38724
-5.42338
-4.48172
-3.73401
-3.07486
-2.84731
-2.56541
-2.536
-2.50337
-2.47951
-2.39682
-2.08076
-1.98885
-1.73238
-1.31113
-0.549392
-23.9611
-24.2929
-22.4461
-20.5229
-19.0416
-17.4642
-15.9167
-14.9587
-13.7579
-12.0432
-10.9188
-10.6564
-11.0677
-10.9646
-10.8471
-10.2663
-9.82348
-9.54295
-9.22638
-9.05457
-8.08068
-7.9715
-7.55313
-7.06813
-6.48103
-5.42504
-4.79665
-3.99929
-3.30662
-2.81685
-2.67357
-3.08657
-3.34679
-3.59481
-3.44502
-3.06402
-2.38571
-1.46404
-0.846254
-0.342447
-22.5648
-21.8811
-21.2685
-20.5879
-17.9102
-15.8356
-15.5207
-15.6328
-13.4284
-11.1805
-10.0109
-10.0769
-10.3769
-10.1147
-10.6401
-10.5038
-10.7249
-10.0807
-9.11313
-8.31679
-7.47536
-7.9886
-7.65951
-7.70486
-6.56697
-5.07073
-4.04195
-2.16054
-1.92612
-1.57876
-2.27912
-2.69593
-3.11771
-4.24277
-3.93897
-4.20124
-3.35964
-2.11978
-0.882147
0.716661
42.4542
44.7958
58.0928
70.9375
42.0996
43.3318
57.5313
69.5016
-28.3136
-41.2104
-30.4892
-26.0494
-29.0821
-33.3335
-37.8532
-34.0237
-28.9336
-25.3548
-26.7294
-21.0596
-18.6986
-19.5154
-17.9249
-14.5825
-11.8092
-11.0485
-10.8634
-10.2535
-9.41172
-8.82443
-8.93428
-9.76461
-10.2428
-9.90638
-9.28012
-8.81174
-8.53531
-8.44207
-8.1885
-7.5518
-6.96038
-6.44898
-5.53298
-4.63451
-4.16728
-3.9247
-3.51399
-3.21384
-2.95794
-2.83002
-2.79704
-2.69598
-2.05562
-1.48933
-0.799181
0.0143664
-27.0891
-25.2685
-22.7537
-26.3293
-22.1123
-18.4781
-17.3477
-15.6923
-12.478
-10.3164
-8.89627
-8.23527
-7.96276
-7.84142
-8.1454
-8.9905
-9.84721
-10.1246
-10.1245
-9.91319
-9.27845
-8.5826
-7.81629
-6.75268
-6.29971
-6.46162
-6.67208
-7.19884
-7.28792
-6.70501
-5.62614
-4.21708
-2.68806
-1.44195
-0.446562
0.234781
-0.127733
0.327139
0.166766
-0.319011
37.3558
34.1003
29.9643
13.7073
28.9876
26.8382
18.1793
7.87161
23.9523
24.5847
20.294
13.9673
23.234
23.4051
20.073
13.6868
-39.0388
-62.878
-7.55303
-12.8765
4.99628
-3.87111
5.12315
-4.04217
-33.2459
-16.6814
-12.4973
-26.9421
-6.80951
-7.75802
-13.501
-22.5766
-11.5022
-17.7198
-21.7158
-24.3802
-11.3979
-16.6577
-19.9116
-21.4438
-30.6734
-28.6834
-23.3563
-19.9196
-19.9199
-18.8172
-16.7823
-13.5982
-11.3234
-9.39537
-7.92961
-6.84776
-5.58613
-6.50468
-7.27094
-9.02271
-10.2627
-10.9375
-11.4734
-10.7826
-10.3603
-8.64616
-7.62468
-6.73547
-5.92653
-6.37142
-6.71611
-7.4507
-7.40132
-7.19373
-6.17789
-4.56452
-2.68604
0.241143
1.83148
3.08087
2.70116
1.5156
0.836758
-0.203578
-27.4458
-27.1073
-23.7733
-21.0273
-19.6163
-17.7554
-15.7783
-13.7896
-12.2324
-10.8338
-9.78954
-9.1297
-8.31897
-7.8697
-8.03189
-8.9856
-10.0592
-10.5
-10.4765
-9.70091
-9.04344
-8.07509
-7.38291
-7.12621
-6.82529
-6.76143
-6.77176
-6.88566
-6.5805
-5.81676
-4.81937
-3.62754
-2.62603
-1.50302
-0.312398
0.391985
0.655532
0.235138
0.0503096
-0.26567
-26.1031
-25.5065
-23.4452
-21.3861
-19.5125
-17.5573
-15.3612
-13.6835
-12.303
-11.213
-10.0717
-9.34489
-8.90031
-8.39718
-8.34956
-8.52786
-9.27847
-9.86726
-9.80733
-9.31539
-8.59491
-8.31523
-7.83538
-7.58281
-7.10971
-6.64465
-6.29242
-5.88706
-5.65195
-5.02903
-4.54081
-3.81208
-2.88876
-1.64317
-0.523641
0.148722
0.674825
0.650765
0.562033
0.314637
-22.2904
-22.5991
-22.1374
-20.6955
-18.9537
-17.298
-15.2094
-13.4396
-12.148
-11.5542
-10.8341
-9.85822
-9.20416
-8.62821
-8.50944
-8.62332
-9.34868
-9.81175
-9.6738
-9.16325
-8.47673
-8.22805
-7.82852
-7.51505
-7.00516
-6.54719
-6.26333
-5.83671
-5.58384
-5.0131
-4.48846
-3.6991
-2.72683
-1.7758
-0.783627
-0.137561
0.339337
0.431718
0.227914
0.175759
)
;

boundaryField
{
    inlet
    {
        type            zeroGradient;
    }
    outlet
    {
        type            fixedValue;
        value           uniform 0;
    }
    obstacle
    {
        type            zeroGradient;
    }
    upperWall
    {
        type            zeroGradient;
    }
    lowerWall
    {
        type            zeroGradient;
    }
    frontAndBack
    {
        type            empty;
    }
}


// ************************************************************************* //
