/*--------------------------------*- C++ -*----------------------------------*\
  =========                 |
  \\      /  F ield         | OpenFOAM: The Open Source CFD Toolbox
   \\    /   O peration     | Website:  https://openfoam.org
    \\  /    A nd           | Version:  10
     \\/     M anipulation  |
\*---------------------------------------------------------------------------*/
FoamFile
{
    format      ascii;
    class       volScalarField;
    location    "1.475";
    object      p;
}
// * * * * * * * * * * * * * * * * * * * * * * * * * * * * * * * * * * * * * //

dimensions      [0 2 -2 0 0 0 0];

internalField   nonuniform List<scalar> 
496
(
24.8954
25.0147
22.5898
16.141
25.5384
26.3913
23.2134
16.4656
30.6822
29.4211
22.0227
11.5776
39.5302
37.0469
31.9264
17.4918
7.15712
-2.20127
7.13631
-2.00636
-3.05269
-10.2089
-34.7591
-56.7918
-9.54385
-14.9002
-17.9399
-19.4433
-9.85783
-15.2108
-18.8304
-22.383
-5.64478
-7.75835
-13.8562
-21.568
-29.1131
-16.1317
-16.324
-28.7122
-20.4038
-19.9087
-17.8737
-15.5636
-13.8917
-12.5086
-11.5259
-11.8106
-12.6935
-12.961
-12.2246
-11.6567
-11.8158
-12.3336
-12.5435
-12.0514
-11.3074
-10.5433
-9.99426
-9.4016
-8.73926
-8.12754
-7.55702
-7.12932
-6.58036
-6.12829
-5.54464
-4.97269
-4.26303
-3.46318
-2.75428
-1.90205
-1.32569
-0.869583
-0.7789
-0.751979
-0.639957
-0.563319
-0.350216
-0.11858
-24.3801
-22.8618
-19.4912
-16.1478
-13.7545
-12.1629
-11.5533
-12.0304
-12.6163
-12.621
-12.0469
-11.8039
-11.9919
-12.4094
-12.5357
-12.1048
-11.3759
-10.5017
-9.8822
-9.11416
-8.53067
-7.90857
-7.48474
-7.05575
-6.53532
-6.11096
-5.50339
-4.95778
-4.22064
-3.36352
-2.42532
-1.6318
-1.11274
-0.663315
-0.495447
-0.525169
-0.669079
-0.590566
-0.346605
-0.190482
-24.4759
-22.5421
-18.834
-15.8507
-13.7979
-11.7626
-10.9164
-11.1845
-12.0011
-12.3999
-12.3848
-12.3023
-12.254
-12.5925
-12.4887
-12.1685
-11.5704
-10.9482
-10.214
-9.53114
-8.935
-8.44387
-8.01683
-7.62744
-7.25553
-6.66743
-5.87456
-5.02403
-3.99838
-3.18132
-2.36782
-1.67969
-1.18723
-0.930489
-1.10867
-1.2755
-1.34646
-1.25674
-0.871728
-0.265618
-29.4556
-22.8725
-16.0169
-14.5873
-14.2684
-11.843
-10.4283
-9.87313
-10.5005
-11.4146
-12.3752
-12.9747
-13.4614
-13.6884
-13.2883
-12.8493
-11.6619
-10.6103
-9.37946
-8.40372
-7.91578
-7.45493
-7.58981
-7.27556
-7.42186
-6.98113
-6.42354
-5.61105
-4.27726
-2.96465
-1.32687
-0.357275
0.33569
0.0135589
-0.286264
-0.754031
-1.44527
-1.4488
-1.5856
-0.902029
44.6918
44.9449
58.6844
70.4976
44.1094
45.6118
59.6981
71.0204
-25.9548
-36.2088
-36.5631
-34.6247
-30.432
-51.8753
-34.4554
-24.0439
-23.9487
-24.7531
-22.5601
-14.2649
-13.9114
-12.3007
-10.7092
-9.74615
-9.81371
-10.1525
-10.4602
-11.603
-12.5272
-13.2213
-13.5012
-13.3959
-12.7287
-11.8502
-10.6981
-9.63798
-8.78975
-8.0759
-7.639
-7.31886
-6.90885
-6.61474
-6.00059
-5.10958
-4.17007
-3.26812
-2.33543
-1.66674
-1.21748
-0.911694
-0.774807
-0.976715
-1.08955
-1.13642
-1.30971
-0.586888
-26.1712
-29.5616
-19.9299
-13.9036
-17.8607
-12.1429
-9.91626
-8.97315
-9.10601
-9.4863
-9.61177
-10.8206
-11.7329
-12.678
-13.3415
-13.5816
-13.3062
-12.687
-11.837
-10.7269
-9.58203
-8.48391
-7.43577
-6.5012
-5.6471
-4.9489
-4.63649
-4.18681
-3.89796
-3.67854
-3.59629
-3.25475
-2.84425
-2.28698
-1.60929
-0.914279
-0.443073
-0.0205003
0.370044
0.175761
38.9179
37.0215
32.5935
18.6792
31.9901
29.8337
21.4265
10.7074
26.7267
26.9023
22.4601
15.2078
25.6663
25.4854
22.2022
15.2881
-33.8722
-56.6988
-4.21582
-10.8233
5.94131
-3.38414
6.18243
-3.15947
-28.1231
-22.0479
-25.8778
-25.5748
-6.73098
-10.9965
-17.957
-20.7886
-11.6618
-18.3628
-22.874
-24.4402
-10.6609
-16.191
-19.3073
-20.2902
-20.6038
-20.0666
-18.6468
-14.3975
-12.5997
-10.723
-9.05056
-8.78812
-9.07979
-9.48633
-9.48764
-10.4782
-11.5704
-12.5605
-13.29
-13.515
-13.9477
-13.1086
-12.4802
-11.2776
-10.0379
-8.69477
-7.06071
-6.0031
-4.56708
-4.04011
-3.50585
-3.53524
-3.93758
-4.06479
-4.46545
-4.11828
-3.87321
-2.87669
-1.8377
-0.643373
0.809973
1.2298
1.72885
0.940122
-19.7713
-18.8964
-18.4805
-16.7768
-14.0513
-11.4864
-10.3396
-10.5812
-10.944
-10.7317
-10.3757
-10.456
-11.2258
-12.0964
-12.8313
-13.0404
-13.009
-12.6409
-11.8761
-10.873
-9.66024
-8.50801
-7.22607
-6.29536
-5.40515
-4.87213
-4.51224
-4.36902
-4.30759
-4.20002
-4.14486
-3.70842
-3.08763
-2.27521
-1.53679
-1.02153
-0.476984
-0.0973905
0.031726
0.0934328
-22.797
-19.7981
-17.7078
-16.3436
-14.3374
-11.5861
-9.43697
-9.31809
-10.4489
-11.3384
-11.1078
-10.4694
-10.6545
-11.5666
-12.4986
-12.8507
-12.5299
-12.0523
-11.2592
-10.4744
-9.49413
-8.44618
-7.39998
-6.33421
-5.58958
-4.81781
-4.44159
-4.07077
-3.94238
-3.74181
-3.35995
-3.02535
-2.51966
-2.21931
-1.86312
-1.49932
-1.03126
-0.538694
-0.250104
0.0634391
-19.5104
-17.7357
-16.0138
-15.3236
-14.5202
-12.605
-10.3578
-9.63222
-10.993
-12.2496
-11.9314
-10.7506
-10.395
-11.1533
-12.1411
-12.5795
-12.1944
-11.6147
-10.9513
-10.3188
-9.47877
-8.47135
-7.47475
-6.47681
-5.75358
-5.09572
-4.70167
-4.36797
-4.09169
-3.82659
-3.39851
-3.03599
-2.54339
-2.20984
-1.84548
-1.49511
-1.14522
-0.702767
-0.339601
-0.0387198
)
;

boundaryField
{
    inlet
    {
        type            zeroGradient;
    }
    outlet
    {
        type            fixedValue;
        value           uniform 0;
    }
    obstacle
    {
        type            zeroGradient;
    }
    upperWall
    {
        type            zeroGradient;
    }
    lowerWall
    {
        type            zeroGradient;
    }
    frontAndBack
    {
        type            empty;
    }
}


// ************************************************************************* //
