/*--------------------------------*- C++ -*----------------------------------*\
  =========                 |
  \\      /  F ield         | OpenFOAM: The Open Source CFD Toolbox
   \\    /   O peration     | Website:  https://openfoam.org
    \\  /    A nd           | Version:  10
     \\/     M anipulation  |
\*---------------------------------------------------------------------------*/
FoamFile
{
    format      ascii;
    class       volScalarField;
    location    "9.375";
    object      p;
}
// * * * * * * * * * * * * * * * * * * * * * * * * * * * * * * * * * * * * * //

dimensions      [0 2 -2 0 0 0 0];

internalField   nonuniform List<scalar> 
400
(
3.828e-07
-3.07048e-05
2.69202e-05
0.000139121
0.000314643
0.000556794
0.000870944
0.00126414
0.00174373
0.0023157
0.00298234
0.00373916
0.00456997
0.00544183
0.00629893
0.00706455
0.00764933
0.00798963
0.00810183
0.00795849
3.56332e-05
3.93954e-06
7.03165e-05
0.000185936
0.000361058
0.000599806
0.000907893
0.00129231
0.00176027
0.00231797
0.00296863
0.00370929
0.00452453
0.00538606
0.0062391
0.0070052
0.00758807
0.00791777
0.00801752
0.00785434
-3.66453e-05
-7.81601e-05
-1.35865e-05
9.69361e-05
0.000264348
0.000492899
0.000788814
0.00116003
0.00161539
0.00216375
0.00281207
0.00356202
0.00440597
0.00531794
0.00624038
0.00708098
0.00771518
0.00804204
0.0080911
0.00785513
-0.000193936
-0.000242194
-0.000182184
-8.07712e-05
7.37341e-05
0.000285835
0.000562512
0.0009131
0.00134881
0.00188252
0.00252741
0.00329319
0.00417993
0.00516948
0.00620549
0.00717555
0.00790756
0.00823054
0.00817735
0.00781815
-0.000446584
-0.000500262
-0.000448361
-0.000360871
-0.000225423
-3.72107e-05
0.000211566
0.000531789
0.00093746
0.00144617
0.0020789
0.0028575
0.00379648
0.00488838
0.00608604
0.00725637
0.00815387
0.0084706
0.00823748
0.00767593
-0.000792806
-0.000851582
-0.000811323
-0.000742918
-0.00063367
-0.000478789
-0.000270113
4.31505e-06
0.000360705
0.000820914
0.00141369
0.00217467
0.00313885
0.00432177
0.00571366
0.00717234
0.00834943
0.00867026
0.00814549
0.00725931
-0.00122594
-0.00129013
-0.001265
-0.00122134
-0.0011467
-0.00103696
-0.000884747
-0.000678773
-0.000402685
-3.30593e-05
0.000463524
0.0011333
0.00203495
0.00322779
0.00474272
0.00652486
0.00813241
0.00851329
0.00767435
0.00635594
-0.00173664
-0.00180685
-0.00180014
-0.00178701
-0.00175604
-0.00170489
-0.00162883
-0.0015202
-0.00136752
-0.00115293
-0.000848838
-0.000415558
0.000203006
0.00109379
0.00238679
0.00424541
0.00636965
0.00717577
0.00646733
0.00498704
-0.00231309
-0.0023899
-0.00240405
-0.00242626
-0.00244714
-0.00246768
-0.00248829
-0.00250892
-0.00252963
-0.00255079
-0.00257408
-0.00261046
-0.00270395
-0.00288519
-0.00289818
-0.00194333
0.000436838
0.00295596
0.00414452
0.00413464
-0.00294128
-0.00302493
-0.00306042
-0.00312014
-0.00319777
-0.0032993
-0.00343303
-0.00361115
-0.00385358
-0.00419436
-0.00469474
-0.00547737
-0.00682606
-0.00912326
-0.0121932
-0.0138475
-0.011784
-0.00629643
-0.000593401
0.00358498
-0.003606
-0.00369627
-0.00375037
-0.00384537
-0.00397843
-0.00416229
-0.00441518
-0.00476505
-0.00525852
-0.0059775
-0.00707424
-0.008839
-0.0118705
-0.0170873
-0.0243462
-0.0300743
-0.0288952
-0.0203995
-0.010053
-0.00132724
-0.0042922
-0.00438755
-0.00445174
-0.00457269
-0.00475081
-0.00500632
-0.00536702
-0.00587599
-0.00660567
-0.00768301
-0.00934452
-0.0120312
-0.0165518
-0.0240209
-0.0342504
-0.0425622
-0.0426174
-0.0336449
-0.0223216
-0.0107028
-0.00499001
-0.00508926
-0.00515018
-0.00528047
-0.00548259
-0.00578426
-0.0062201
-0.00684203
-0.00773642
-0.00904963
-0.0110488
-0.014215
-0.0193669
-0.0274372
-0.0383094
-0.0469303
-0.0473558
-0.0391708
-0.0297628
-0.0183549
-0.00568959
-0.00578215
-0.00581027
-0.00592049
-0.00611746
-0.00643251
-0.00689949
-0.00757113
-0.00853257
-0.00992007
-0.0119779
-0.0151432
-0.0200333
-0.0272734
-0.0366432
-0.0429192
-0.0441231
-0.0371418
-0.0312202
-0.0207538
-0.00641687
-0.00650898
-0.00647804
-0.0065422
-0.00669164
-0.00696904
-0.00740751
-0.00805427
-0.00898389
-0.0103031
-0.0121736
-0.0149569
-0.0190574
-0.0246147
-0.0314707
-0.0359306
-0.0365816
-0.0305291
-0.027808
-0.0174399
-0.00725844
-0.00715128
-0.00697941
-0.00690801
-0.00698135
-0.00721389
-0.00761831
-0.0082192
-0.00907391
-0.0102257
-0.0118618
-0.0141211
-0.0172514
-0.0211538
-0.0257419
-0.0283041
-0.0284097
-0.0229948
-0.0221731
-0.00813444
-0.00770105
-0.00808591
-0.00772019
-0.00765585
-0.00757827
-0.00765481
-0.00789699
-0.00833685
-0.00902174
-0.00998947
-0.0113527
-0.0131733
-0.0155852
-0.0183604
-0.0214552
-0.0228045
-0.0223661
-0.0171383
-0.0148514
0.00982512
-0.0110705
-0.00849891
-0.00777158
-0.00707378
-0.00691012
-0.0070115
-0.0073231
-0.00780635
-0.00848838
-0.00938707
-0.0106034
-0.0121502
-0.0141516
-0.0162807
-0.0184741
-0.0189547
-0.0177102
-0.0108245
-0.00177065
0.041433
-0.00766171
-0.0105939
-0.0093796
-0.00927188
-0.00871251
-0.0083989
-0.0082845
-0.00839208
-0.00877576
-0.00942038
-0.0104432
-0.0117906
-0.0137079
-0.0157748
-0.0181547
-0.0184162
-0.0163335
-0.0026353
0.0218881
0.0983526
-0.0329066
-0.00775133
-0.00608199
-0.00523381
-0.00495955
-0.00510707
-0.00555879
-0.00612742
-0.00690366
-0.00780984
-0.00907482
-0.0105238
-0.0123431
-0.0137806
-0.0145083
-0.0108525
-2.67487e-05
0.0339217
0.0993582
0.229553
)
;

boundaryField
{
    movingWall
    {
        type            zeroGradient;
    }
    fixedWalls
    {
        type            zeroGradient;
    }
    frontAndBack
    {
        type            empty;
    }
}


// ************************************************************************* //
