/*--------------------------------*- C++ -*----------------------------------*\
  =========                 |
  \\      /  F ield         | OpenFOAM: The Open Source CFD Toolbox
   \\    /   O peration     | Website:  https://openfoam.org
    \\  /    A nd           | Version:  10
     \\/     M anipulation  |
\*---------------------------------------------------------------------------*/
FoamFile
{
    format      ascii;
    class       volVectorField;
    location    "2.2";
    object      U;
}
// * * * * * * * * * * * * * * * * * * * * * * * * * * * * * * * * * * * * * //

dimensions      [0 1 -1 0 0 0 0];

internalField   nonuniform List<vector> 
496
(
(9.95838 0.0407004 0)
(10.0643 -0.23713 0)
(10.4561 -0.106232 0)
(10.8342 -0.275129 0)
(10.0507 0.213484 0)
(9.92241 -1.0765 0)
(10.6301 -0.321417 0)
(10.8556 -1.25674 0)
(11.1493 0.868481 0)
(8.46055 -2.46417 0)
(11.9134 -0.0848587 0)
(10.0153 -4.01753 0)
(12.5522 1.18264 0)
(6.90069 -2.33093 0)
(14.0918 0.100095 0)
(8.20257 -6.39475 0)
(11.5026 -0.241826 2.89129e-18)
(12.2525 -0.116539 -4.93313e-20)
(11.8699 -0.563424 -7.07763e-19)
(12.5581 0.0721432 2.18219e-18)
(13.2664 -1.68739 -2.18691e-18)
(12.5415 -0.48223 -2.13322e-18)
(14.7707 -5.68512 -3.1848e-17)
(13.6356 -4.34782 6.2373e-17)
(12.7488 -0.163032 0)
(12.9925 -0.0175502 0)
(13.0731 0.114675 0)
(13.0506 0.125765 0)
(13.0623 -0.0327567 0)
(13.5924 -0.238497 0)
(13.5444 -0.494224 0)
(13.5394 -0.574587 0)
(12.345 1.21024 0)
(12.5474 1.0546 0)
(12.737 0.713416 0)
(13.1479 0.642463 0)
(13.4796 -3.17188 0)
(8.88919 -1.44915 0)
(10.7499 -0.790663 0)
(10.3159 0.0927669 0)
(12.999 0.183646 0)
(13.0795 0.254237 0)
(12.9906 0.284271 0)
(12.8074 0.188878 0)
(12.564 0.1765 0)
(12.6579 0.125127 0)
(12.8504 0.19316 0)
(13.0671 0.129159 0)
(13.1064 0.170285 0)
(13.0535 0.198048 0)
(13.0281 0.291918 0)
(12.9289 0.368906 0)
(12.9546 0.42279 0)
(12.7947 0.465579 0)
(12.8281 0.452294 0)
(12.6034 0.484345 0)
(12.6418 0.498701 0)
(12.38 0.573341 0)
(12.3497 0.586502 0)
(11.993 0.630975 0)
(11.7861 0.608151 0)
(11.3177 0.641616 0)
(11.015 0.612055 0)
(10.7473 0.56962 0)
(10.6709 0.458605 0)
(10.7685 0.321953 0)
(10.9409 0.252829 0)
(11.2316 0.169982 0)
(11.4886 0.207662 0)
(11.6357 0.210133 0)
(11.7335 0.296127 0)
(11.4477 0.358079 0)
(11.2922 0.424592 0)
(10.676 0.503108 0)
(10.5367 0.456011 0)
(10.0909 0.440071 0)
(10.0924 0.243095 0)
(10.1236 0.175383 0)
(10.1947 0.0337212 0)
(10.6803 0.0159584 0)
(13.5548 -0.420173 0)
(13.6428 -0.214 0)
(13.4513 -0.172756 0)
(13.2585 -0.248226 0)
(13.1473 -0.200306 0)
(13.3006 -0.193473 0)
(13.5589 -0.161108 0)
(13.7072 -0.304908 0)
(13.9128 -0.325992 0)
(13.9004 -0.337393 0)
(14.0071 -0.247445 0)
(13.8857 -0.212268 0)
(13.948 -0.198182 0)
(13.7641 -0.220698 0)
(13.8158 -0.281631 0)
(13.6788 -0.26967 0)
(13.7574 -0.274451 0)
(13.6075 -0.139438 0)
(13.5393 -0.063695 0)
(13.2852 0.096278 0)
(13.0551 0.0628672 0)
(12.7465 0.0117006 0)
(12.4159 -0.155774 0)
(12.163 -0.290078 0)
(12.0264 -0.396023 0)
(12.0684 -0.591652 0)
(12.2669 -0.638261 0)
(12.466 -0.737016 0)
(12.8119 -0.546349 0)
(12.9496 -0.410241 0)
(13.2119 -0.0696789 0)
(13.0886 0.129001 0)
(13.0617 0.267423 0)
(12.7359 0.226051 0)
(12.4659 0.00681852 0)
(12.1921 -0.0354778 0)
(11.8851 -0.334743 0)
(12.0036 -0.293989 0)
(11.8878 -0.512526 0)
(12.3381 -0.450737 0)
(13.6323 0.534492 0)
(13.4355 0.300381 0)
(13.2991 0.117355 0)
(12.9779 0.0456235 0)
(13.207 0.0983227 0)
(12.9549 -0.0344852 0)
(13.3445 -0.00241539 0)
(13.1163 -0.164443 0)
(13.5267 0.0227052 0)
(13.4436 0.0703135 0)
(13.6013 0.369982 0)
(13.5831 0.439975 0)
(13.5008 0.482073 0)
(13.5791 0.448639 0)
(13.3678 0.313464 0)
(13.5907 0.381787 0)
(13.4426 0.301676 0)
(13.796 0.571031 0)
(13.7354 0.64479 0)
(13.9537 1.06746 0)
(13.6975 1.21273 0)
(13.5029 1.46965 0)
(13.1613 1.35931 0)
(12.9164 1.04554 0)
(12.7802 0.524865 0)
(12.3907 -0.131262 0)
(12.4331 -0.327954 0)
(12.198 -0.655902 0)
(12.48 -0.428815 0)
(12.5605 -0.403941 0)
(12.9279 0.11596 0)
(13.2314 0.529178 0)
(13.1637 0.954067 0)
(13.1926 1.4036 0)
(12.7364 1.24596 0)
(12.8666 1.17217 0)
(12.4167 0.313471 0)
(12.4788 -0.01628 0)
(12.1487 -0.553847 0)
(12.0502 -0.557483 0)
(9.87377 0.615305 0)
(10.0593 -0.323706 0)
(8.35501 0.0531654 0)
(9.90019 0.0856416 0)
(8.30504 -0.287609 0)
(8.72519 -0.115879 0)
(8.79458 -0.753007 0)
(8.30964 -0.66529 0)
(8.92143 -0.640844 0)
(8.28382 -0.571353 0)
(8.97651 -0.230077 0)
(7.79469 -0.077432 0)
(8.28766 0.0877909 0)
(7.48538 0.0556611 0)
(7.90555 -0.0233082 0)
(7.84532 -0.200982 0)
(8.15969 -0.307564 0)
(8.86334 -0.384324 0)
(9.01487 -0.29952 0)
(10.2986 -0.0971193 0)
(10.2196 0.0713262 0)
(11.3089 0.247677 0)
(10.6417 0.310064 0)
(10.8468 0.3904 0)
(9.44926 0.368309 0)
(8.93012 0.357101 0)
(8.06701 0.126144 0)
(7.54013 -0.286041 0)
(7.88523 -0.587051 0)
(7.93815 -0.778813 0)
(9.02525 -0.69298 0)
(9.4772 -0.43602 0)
(10.4475 -0.142101 0)
(11.0752 0.175796 0)
(11.157 0.229614 0)
(11.2918 0.31579 0)
(9.96423 0.323186 0)
(9.56985 0.401576 0)
(8.02958 0.381679 0)
(7.65538 -0.0413871 0)
(11.6622 0.863519 -1.08596e-17)
(8.68618 -0.956943 -1.83806e-17)
(10.3489 0.272316 3.21072e-17)
(5.79292 -4.50397 -8.65202e-17)
(13.194 -0.392553 1.0756e-17)
(7.32976 0.522605 1.82357e-17)
(12.319 0.487122 -3.18343e-17)
(4.71756 4.36535 8.66597e-17)
(-9.31345 2.61859 0)
(1.70079 -1.04963 0)
(-2.46902 2.40704 0)
(-5.37899 -1.09864 0)
(2.32661 1.64836 3.65533e-17)
(-1.83325 -3.82178 0)
(-1.81441 4.55251 0)
(2.34725 -1.78784 0)
(2.6287 1.24755 0)
(-2.17933 -0.730086 0)
(2.9404 0.719461 0)
(1.80738 1.13743 0)
(-0.905095 -1.22913 0)
(4.89416 0.277531 0)
(-0.912618 0.279716 0)
(1.63443 -0.490719 0)
(1.74691 0.601104 0)
(0.131594 0.873692 0)
(0.605654 0.825034 0)
(0.00938052 0.594213 0)
(0.329636 0.542862 0)
(0.482811 0.372633 0)
(0.690111 0.00551105 0)
(1.03421 -0.196425 0)
(1.41232 -0.377319 0)
(1.56656 -0.478712 0)
(2.10444 -0.333736 0)
(2.83054 0.142572 0)
(2.64994 0.476503 0)
(3.03063 0.946103 0)
(2.88846 1.35455 0)
(2.80726 1.45839 0)
(2.45876 1.33465 0)
(2.8507 0.806151 0)
(2.63158 0.174799 0)
(2.88591 -0.634076 0)
(3.34419 -1.07273 0)
(3.50751 -1.23892 0)
(4.00773 -1.21854 0)
(4.57162 -0.764115 0)
(4.68374 -0.169985 0)
(5.22201 0.51119 0)
(4.78094 0.967817 0)
(4.68049 1.39832 0)
(4.36874 1.36238 0)
(3.94061 1.20466 0)
(3.83803 0.449096 0)
(3.94996 -0.224363 0)
(-0.419269 -2.37779 0)
(0.952981 -1.66884 0)
(-1.51545 -0.415796 0)
(1.88886 0.385875 0)
(1.69106 -1.50405 0)
(1.1084 0.52801 0)
(0.668773 1.07576 0)
(2.48603 -1.94441 0)
(-0.0129643 0.0580567 0)
(0.612154 0.281066 0)
(1.56598 -0.320126 0)
(1.15154 -0.0529302 0)
(1.15529 -0.109944 0)
(1.67261 -0.316947 0)
(1.82831 -0.637062 0)
(1.89689 -0.875698 0)
(2.00607 -1.03554 0)
(1.926 -1.01833 0)
(1.76025 -0.97357 0)
(2.10719 -0.624001 0)
(2.13936 -0.0223182 0)
(2.23891 0.520483 0)
(3.04217 0.814275 0)
(3.22934 0.98682 0)
(3.84059 0.908426 0)
(4.60499 0.336183 0)
(4.57039 -0.0862214 0)
(5.14207 -0.702091 0)
(4.57842 -1.19273 0)
(4.56169 -1.43444 0)
(4.13182 -1.51101 0)
(3.74823 -1.00043 0)
(3.97318 -0.382134 0)
(4.03126 0.351924 0)
(3.99784 1.07866 0)
(4.62206 1.36742 0)
(4.8543 1.30288 0)
(5.06777 1.21202 0)
(5.85482 0.650228 0)
(5.72303 -0.11425 0)
(11.4267 -2.02398 0)
(8.82917 3.21591 0)
(11.9889 -1.62896 0)
(10.9982 7.12242 0)
(10.7013 -1.56848 0)
(9.20403 3.36357 0)
(11.2563 -0.00269888 0)
(10.9442 4.59201 0)
(9.95112 -0.643836 0)
(9.82835 1.46371 0)
(10.1164 0.116381 0)
(10.8157 1.28133 0)
(9.91644 -0.0936342 0)
(9.93331 0.17645 0)
(10.1513 0.0786502 0)
(10.7654 0.226194 0)
(12.1389 4.83949 3.48239e-17)
(16.4761 4.92814 -6.14014e-17)
(13.1303 2.29118 0)
(13.6436 0.916772 0)
(11.6215 0.330483 0)
(12.6254 -0.151367 0)
(11.4239 0.223415 0)
(12.2782 0.199445 0)
(8.69397 2.57397 0)
(11.8524 1.65797 0)
(9.43535 1.01719 0)
(10.3091 0.0884203 0)
(13.2523 0.0826689 0)
(13.4575 -0.61085 0)
(13.8523 -0.556244 0)
(14.1335 -0.639062 0)
(13.2156 -0.156302 0)
(13.7118 0.0943664 0)
(14.0774 0.199213 0)
(14.1532 0.289446 0)
(12.8406 0.217707 0)
(13.226 0.246592 0)
(13.4377 0.141865 0)
(13.3476 0.0234283 0)
(11.7033 -0.0902505 0)
(11.2801 0.281254 0)
(11.5625 -0.0273747 0)
(10.8805 -0.289237 0)
(10.7697 -0.299816 0)
(12.068 0.129379 0)
(9.9074 0.510989 0)
(11.4934 0.623379 0)
(10.1869 0.944829 0)
(10.3362 0.863582 0)
(9.77803 0.696582 0)
(10.3362 0.483685 0)
(10.1925 0.334817 0)
(10.4997 0.101325 0)
(10.8591 -0.0961978 0)
(10.8016 -0.229826 0)
(11.1493 -0.319975 0)
(10.4111 -0.2831 0)
(10.484 -0.241696 0)
(9.48136 -0.112481 0)
(9.52813 -0.00441714 0)
(8.83983 0.285289 0)
(9.09899 0.467212 0)
(9.45388 0.573729 0)
(9.77237 0.498439 0)
(10.8064 0.170027 0)
(11.0538 -0.0940345 0)
(12.1001 -0.450326 0)
(12.0766 -0.509775 0)
(12.4022 -0.528071 0)
(11.5465 -0.435538 0)
(10.6057 -0.352204 0)
(9.62908 -0.214741 0)
(8.58768 0.205295 0)
(8.59282 0.513074 0)
(8.22383 0.896736 0)
(9.02608 0.678055 0)
(9.44451 0.621463 0)
(9.98646 0.176252 0)
(10.9714 -0.279587 0)
(14.41 -1.06743 0)
(14.1538 -1.23455 0)
(13.3491 -1.40834 0)
(13.2911 -1.2997 0)
(12.8653 -0.849037 0)
(13.1837 -0.725419 0)
(12.7131 -0.0739486 0)
(12.9889 -0.0444336 0)
(12.9598 0.160173 0)
(13.177 0.060718 0)
(13.2858 -0.0314426 0)
(13.4284 -0.290686 0)
(13.5663 -0.569729 0)
(13.386 -0.744387 0)
(13.3966 -1.04856 0)
(12.9496 -1.03124 0)
(12.955 -1.14992 0)
(12.5261 -0.790293 0)
(12.6707 -0.623409 0)
(12.3109 -0.0803419 0)
(12.4827 0.101314 0)
(12.4341 0.337289 0)
(12.6948 0.325768 0)
(12.9481 0.0868278 0)
(13.1478 -0.145106 0)
(13.4827 -0.747194 0)
(13.2267 -1.00768 0)
(13.1241 -1.58398 0)
(12.4316 -1.47639 0)
(12.2684 -1.32606 0)
(11.8158 -0.559983 0)
(11.657 0.218025 0)
(11.6114 0.60906 0)
(11.4913 1.09406 0)
(11.8866 0.738067 0)
(11.8269 0.948904 0)
(12.4799 0.252735 0)
(12.5255 0.0442152 0)
(13.0879 -0.483361 0)
(13.0002 -0.982972 0)
(14.0936 0.108216 0)
(13.6995 -0.0399287 0)
(13.2909 0.140698 0)
(12.884 0.308342 0)
(12.6772 0.521028 0)
(12.6943 0.54858 0)
(12.7935 0.752918 0)
(12.9579 0.857452 0)
(13.1615 0.900894 0)
(13.3951 0.827203 0)
(13.5682 0.690009 0)
(13.7375 0.495792 0)
(13.7678 0.306688 0)
(13.6597 0.173199 0)
(13.4642 0.0974517 0)
(13.1992 0.107999 0)
(12.9884 0.155005 0)
(12.6867 0.259968 0)
(12.6294 0.292316 0)
(12.5269 0.39849 0)
(12.714 0.412285 0)
(12.7796 0.472976 0)
(13.051 0.364792 0)
(13.157 0.20298 0)
(13.2735 -0.0102993 0)
(13.1719 -0.272708 0)
(12.9679 -0.286095 0)
(12.7295 -0.319248 0)
(12.2753 -0.0240564 0)
(12.019 0.0596069 0)
(11.6472 0.348862 0)
(11.7337 0.526846 0)
(11.8083 0.696954 0)
(12.1328 0.828271 0)
(12.5296 0.654767 0)
(12.7421 0.587146 0)
(13.2218 0.15816 0)
(13.1107 0.00400857 0)
(13.3572 -0.41374 0)
(12.921 -0.373674 0)
(13.2089 -0.177357 0)
(12.8709 -0.384979 0)
(12.4889 -0.448835 0)
(11.9973 -0.611104 0)
(11.9174 -0.606395 0)
(11.9058 -0.641978 0)
(12.1436 -0.544474 0)
(12.2121 -0.488138 0)
(12.4528 -0.426533 0)
(12.5824 -0.432838 0)
(12.7913 -0.461407 0)
(12.873 -0.499282 0)
(12.884 -0.580618 0)
(12.7382 -0.610216 0)
(12.4783 -0.663091 0)
(12.1974 -0.645109 0)
(11.9091 -0.660798 0)
(11.6985 -0.563671 0)
(11.5636 -0.494216 0)
(11.5155 -0.366418 0)
(11.6347 -0.31157 0)
(11.6992 -0.236481 0)
(11.9217 -0.232177 0)
(11.8647 -0.252628 0)
(11.9685 -0.299492 0)
(11.616 -0.370581 0)
(11.4132 -0.399264 0)
(10.8232 -0.51911 0)
(10.502 -0.492614 0)
(10.1527 -0.48821 0)
(10.0174 -0.317758 0)
(10.2003 -0.190315 0)
(10.3582 -0.103421 0)
(10.9054 0.00159612 0)
(11.1891 -0.0853931 0)
(11.5837 -0.0549647 0)
(11.7639 -0.231041 0)
(11.5758 -0.286856 0)
(11.6055 -0.413893 0)
(10.7471 -0.493679 0)
)
;

boundaryField
{
    inlet
    {
        type            fixedValue;
        value           uniform (10 0 0);
    }
    outlet
    {
        type            zeroGradient;
    }
    obstacle
    {
        type            noSlip;
    }
    upperWall
    {
        type            noSlip;
    }
    lowerWall
    {
        type            noSlip;
    }
    frontAndBack
    {
        type            empty;
    }
}


// ************************************************************************* //
