/*--------------------------------*- C++ -*----------------------------------*\
  =========                 |
  \\      /  F ield         | OpenFOAM: The Open Source CFD Toolbox
   \\    /   O peration     | Website:  https://openfoam.org
    \\  /    A nd           | Version:  10
     \\/     M anipulation  |
\*---------------------------------------------------------------------------*/
FoamFile
{
    format      ascii;
    class       volScalarField;
    location    "7.05";
    object      p;
}
// * * * * * * * * * * * * * * * * * * * * * * * * * * * * * * * * * * * * * //

dimensions      [0 2 -2 0 0 0 0];

internalField   nonuniform List<scalar> 
8000
(
-4.78503e-06
-9.33884e-06
4.02464e-05
0.000129771
0.000265934
0.000450462
0.000685134
0.000971951
0.00131174
0.00170367
0.00214423
0.00262612
0.00313703
0.00365863
0.00416655
0.00463079
0.00501866
0.00529953
0.0054673
0.00547412
-3.95222e-06
-7.99672e-06
4.36193e-05
0.000133143
0.000267681
0.000449392
0.000680568
0.000963288
0.00129868
0.00168625
0.00212295
0.00260203
0.00311139
0.00363314
0.00414305
0.00461136
0.0050042
0.00528945
0.00546221
0.00546296
-7.06168e-05
-7.81379e-05
-2.82715e-05
5.79632e-05
0.000188261
0.000364978
0.000590879
0.000868716
0.00120053
0.00158696
0.00202624
0.00251289
0.00303656
0.0035801
0.00411825
0.00461807
0.00504116
0.00534879
0.00553485
0.00552521
-0.000193208
-0.000203413
-0.000156443
-7.53053e-05
4.83807e-05
0.000217309
0.000434955
0.000705097
0.00103119
0.00141568
0.00185898
0.002358
0.00290424
0.00348156
0.00406473
0.00461768
0.00509396
0.00544301
0.00565467
0.00563245
-0.000378167
-0.000391177
-0.000348625
-0.000274706
-0.000160349
-2.43925e-06
0.000203354
0.000462085
0.000779022
0.00115907
0.00160571
0.00211938
0.00269518
0.00331955
0.00396679
0.00459768
0.00515493
0.00556963
0.00582344
0.00578325
-0.000626005
-0.000642218
-0.000605672
-0.000541425
-0.000439777
-0.000297226
-0.000108585
0.00013256
0.000433511
0.000802099
0.00124581
0.00177005
0.00237543
0.00305328
0.00377914
0.00451627
0.00519057
0.00570699
0.00602958
0.00596435
-0.000935885
-0.000955894
-0.000927051
-0.000875331
-0.000790557
-0.00066905
-0.000504983
-0.000290769
-1.71501e-05
0.000326768
0.000753063
0.00127373
0.00189779
0.00262653
0.00344534
0.00430524
0.00513732
0.00580853
0.00624498
0.00615286
-0.00130617
-0.00133069
-0.00131128
-0.00127519
-0.00121206
-0.00111847
-0.000988501
-0.000813967
-0.000584267
-0.000285972
9.7344e-05
0.000584656
0.00119563
0.00194529
0.00283525
0.0038378
0.00487011
0.00577175
0.00640122
0.00631212
-0.00173454
-0.00176427
-0.00175571
-0.00173818
-0.00170157
-0.00164339
-0.00155849
-0.00143926
-0.0012752
-0.00105196
-0.000750494
-0.000346347
0.000190627
0.000894079
0.00179171
0.00288684
0.00412733
0.00535012
0.0063092
0.00636398
-0.00221829
-0.0022537
-0.00225659
-0.00225961
-0.00225356
-0.00223779
-0.00220917
-0.00216224
-0.00208885
-0.0019771
-0.00180989
-0.00156275
-0.00120155
-0.000680472
5.87039e-05
0.00107881
0.00241915
0.004013
0.00550379
0.0061369
-0.00275508
-0.00279612
-0.00280929
-0.0028328
-0.00285911
-0.00289059
-0.00292757
-0.00296877
-0.00301135
-0.00305032
-0.00307751
-0.00308056
-0.00304024
-0.00292394
-0.00267535
-0.00218779
-0.00121678
0.000567924
0.00302041
0.00504839
-0.00334439
-0.00338981
-0.00340899
-0.00344929
-0.00350557
-0.00358478
-0.00369192
-0.0038318
-0.00401006
-0.00423384
-0.0045128
-0.00486095
-0.0052982
-0.00584587
-0.00650271
-0.00715009
-0.00722916
-0.0052819
-0.00110058
0.00297842
-0.00399105
-0.00403745
-0.00405359
-0.00410158
-0.00417912
-0.00429941
-0.00447321
-0.00471245
-0.00503361
-0.00546024
-0.00602826
-0.00679108
-0.00783227
-0.00925218
-0.0110799
-0.0130459
-0.0138744
-0.0107082
-0.00420333
0.00122827
-0.00470623
-0.00474139
-0.00473459
-0.00477142
-0.00485412
-0.00500193
-0.00522939
-0.00555551
-0.00600725
-0.00662339
-0.00746851
-0.00863296
-0.0102606
-0.0124815
-0.015344
-0.0181088
-0.0193712
-0.0150918
-0.00847623
-0.000748579
-0.00552463
-0.00554408
-0.00549539
-0.0055012
-0.00556037
-0.00570297
-0.00595027
-0.00632751
-0.00687041
-0.0076253
-0.00868112
-0.0101535
-0.0122324
-0.0150277
-0.0186387
-0.0221646
-0.0252934
-0.0224065
-0.0165478
-0.00391538
-0.00661966
-0.00641207
-0.00623004
-0.0061138
-0.00611326
-0.00624046
-0.00650426
-0.00691996
-0.00752453
-0.00835961
-0.00954126
-0.011173
-0.0134968
-0.0165946
-0.0207832
-0.0250376
-0.0312072
-0.0297852
-0.0238799
-0.00519887
-0.00753811
-0.00764163
-0.00731691
-0.00717397
-0.00704871
-0.00705016
-0.00720142
-0.00753011
-0.00807953
-0.00888693
-0.0100642
-0.0116914
-0.0140313
-0.0170949
-0.0214339
-0.025777
-0.0326059
-0.0298808
-0.0226194
0.00302134
-0.0114381
-0.00860541
-0.00794522
-0.0072221
-0.00695592
-0.00693987
-0.00714273
-0.00752268
-0.00811505
-0.00893095
-0.0100959
-0.011644
-0.0138334
-0.0165338
-0.0202378
-0.0232806
-0.027582
-0.0223115
-0.0125281
0.0262672
-0.0110412
-0.0119414
-0.0104478
-0.00992236
-0.00915606
-0.00866414
-0.0084284
-0.00844959
-0.00877238
-0.00937341
-0.0103723
-0.0117442
-0.0138046
-0.0162345
-0.0197297
-0.0218816
-0.0239274
-0.0128635
0.00605376
0.0707285
-0.0357155
-0.0103034
-0.00862033
-0.00712352
-0.00633838
-0.00619665
-0.00643775
-0.0068327
-0.00748144
-0.00828749
-0.00952231
-0.0109634
-0.0130657
-0.0150181
-0.0171638
-0.015795
-0.00998876
0.0165527
0.0645742
0.172076
-1.1008e-06
-1.61308e-05
3.08591e-05
0.000119697
0.000256035
0.0004412
0.000677239
0.000965822
0.001308
0.00170315
0.00214801
0.00263548
0.00315334
0.0036832
0.00419983
0.00467237
0.0050665
0.00534877
0.0055135
0.00550147
1.14749e-05
-3.03123e-06
4.83581e-05
0.000137487
0.00027205
0.000453845
0.000685137
0.000968041
0.00130381
0.00169213
0.00213019
0.00261148
0.00312399
0.00365021
0.00416582
0.00463978
0.0050368
0.00532241
0.00549323
0.00547366
-5.07317e-05
-7.09382e-05
-2.11295e-05
6.46625e-05
0.00019492
0.000371601
0.000597427
0.000875228
0.00120718
0.00159413
0.00203459
0.00252338
0.00305055
0.00359931
0.0041439
0.00465066
0.00507906
0.00538731
0.00557104
0.00553594
-0.000170028
-0.000194192
-0.000147137
-6.64212e-05
5.72296e-05
0.000226096
0.000443611
0.000713651
0.00103982
0.0014248
0.00186938
0.00237087
0.00292118
0.00350485
0.00409683
0.00465908
0.00514275
0.00549285
0.00570134
0.00564744
-0.000353098
-0.000380958
-0.000338255
-0.000264722
-0.000150309
7.66779e-06
0.000213507
0.000472381
0.000789731
0.00117075
0.00161937
0.00213668
0.00271839
0.00335106
0.00401089
0.0046552
0.0052236
0.00564088
0.00589093
0.00580941
-0.000599695
-0.000631555
-0.000594809
-0.000530872
-0.000429005
-0.000286149
-9.71295e-05
0.000144617
0.000446606
0.000817015
0.00126389
0.0017935
0.00240732
0.00309681
0.00384357
0.00460051
0.00529321
0.00581662
0.00613644
0.00601406
-0.000908512
-0.000945049
-0.000915963
-0.000864463
-0.00077929
-0.000657201
-0.000492352
-0.000276963
-1.50249e-06
0.000345373
0.000776478
0.00130502
0.00194171
0.00268967
0.00353059
0.00442864
0.00529562
0.0059871
0.00642881
0.00625537
-0.00127776
-0.00131987
-0.0013002
-0.00126428
-0.00120062
-0.00110621
-0.000975061
-0.000798746
-0.000566313
-0.00026375
0.000126336
0.000624576
0.00125328
0.00203002
0.0029548
0.00401361
0.0051131
0.00607341
0.00673994
0.00654203
-0.00170502
-0.00175367
-0.00174492
-0.00172761
-0.00169044
-0.00163131
-0.00154495
-0.00142342
-0.00125578
-0.00102697
-0.000716762
-0.000298609
0.00026128
0.00100184
0.00195777
0.00312779
0.00449458
0.00587991
0.00698704
0.0069576
-0.0021875
-0.00224355
-0.00224639
-0.00224983
-0.00224336
-0.00222671
-0.00219655
-0.00214703
-0.00206948
-0.00195121
-0.00177388
-0.0015109
-0.00112407
-0.000560433
0.000248708
0.0013791
0.0028997
0.00487938
0.00685185
0.00754956
-0.0027226
-0.00278662
-0.00280001
-0.00282432
-0.00285059
-0.00288152
-0.00291718
-0.00295584
-0.00299413
-0.00302635
-0.00304361
-0.00303199
-0.00297107
-0.00282957
-0.00255627
-0.00202565
-0.00082209
0.00158107
0.00499856
0.00752524
-0.00330913
-0.00338075
-0.00340036
-0.00344203
-0.00349901
-0.00357837
-0.00368479
-0.0038226
-0.00399692
-0.00421452
-0.00448536
-0.00482449
-0.00526056
-0.00584779
-0.00665295
-0.00758722
-0.00781787
-0.00526756
-0.000214441
0.00513696
-0.00395107
-0.00402928
-0.00404683
-0.00409739
-0.0041765
-0.00429746
-0.00447089
-0.00470861
-0.0050265
-0.00544839
-0.00601237
-0.00677934
-0.00785872
-0.00943941
-0.0117456
-0.0145909
-0.0167051
-0.0140399
-0.00760944
0.000482109
-0.00465392
-0.00472691
-0.00472037
-0.00476074
-0.00484756
-0.00499877
-0.00522817
-0.00555397
-0.00600309
-0.00661582
-0.00745936
-0.0086389
-0.0103405
-0.0128544
-0.0164837
-0.0208902
-0.0249314
-0.0228626
-0.0168887
-0.0058847
-0.00545289
-0.00553255
-0.00548595
-0.00550043
-0.00556433
-0.00570955
-0.00595708
-0.00633217
-0.00686953
-0.00761948
-0.00867072
-0.0101487
-0.0123101
-0.0154268
-0.0200274
-0.0256234
-0.0325223
-0.0318494
-0.0279391
-0.0127346
-0.00648057
-0.00634006
-0.00616796
-0.00606506
-0.00608063
-0.00622046
-0.00649174
-0.0069096
-0.00750781
-0.00833689
-0.00950052
-0.0111089
-0.0135098
-0.0167827
-0.0219486
-0.027828
-0.0373523
-0.0373149
-0.0349624
-0.0142249
-0.00722037
-0.00754996
-0.00723314
-0.00714653
-0.00703916
-0.00705232
-0.00720561
-0.00752918
-0.00806216
-0.00884418
-0.00998412
-0.0115377
-0.0138795
-0.0170346
-0.0219655
-0.0273372
-0.0354465
-0.0350915
-0.0320225
-0.00185393
-0.0109371
-0.00827818
-0.00765418
-0.00697276
-0.00679189
-0.00683983
-0.00708182
-0.00747864
-0.00806275
-0.00883713
-0.00994412
-0.0114068
-0.0135383
-0.0162677
-0.0202951
-0.0240651
-0.0289028
-0.0262894
-0.0180239
0.0272433
-0.00837081
-0.0109696
-0.00985731
-0.0096984
-0.00910654
-0.00871672
-0.00852198
-0.00853964
-0.00882864
-0.00935969
-0.0102626
-0.0115158
-0.0134976
-0.0159169
-0.0197835
-0.0227496
-0.0256449
-0.015726
0.0058741
0.0790531
-0.0334801
-0.00843603
-0.00701974
-0.00608436
-0.00565675
-0.00568639
-0.00604718
-0.00650158
-0.00719192
-0.00797211
-0.00917532
-0.0105458
-0.0126088
-0.0146501
-0.0169285
-0.0160191
-0.0099544
0.0183692
0.0783725
0.202956
1.07113e-05
-9.34561e-06
3.69278e-05
0.000125146
0.000261929
0.00044828
0.000686053
0.000977269
0.00132317
0.00172339
0.0021749
0.00267079
0.00319888
0.00374056
0.00426984
0.00475429
0.00515717
0.00544244
0.00560489
0.00557965
3.06541e-05
1.02632e-05
6.15139e-05
0.0001503
0.000285066
0.000467464
0.000699833
0.000984493
0.00132293
0.00171509
0.00215845
0.0026467
0.00316776
0.0037049
0.0042322
0.00471733
0.00512275
0.00541145
0.00558093
0.00554841
-2.69867e-05
-5.43667e-05
-4.61609e-06
8.07516e-05
0.000211082
0.000388186
0.000614905
0.000894303
0.00122885
0.00161976
0.00206592
0.00256254
0.00310011
0.00366155
0.00422036
0.00474119
0.00518054
0.00549307
0.00567521
0.0056229
-0.000142097
-0.000174265
-0.000127168
-4.69207e-05
7.67483e-05
0.000245975
0.000464356
0.000736053
0.00106504
0.00145449
0.00190573
0.00241661
0.00297925
0.0035799
0.00419087
0.0047726
0.00527204
0.00562852
0.00583509
0.00575733
-0.000321779
-0.000358308
-0.000315478
-0.000242393
-0.000127897
3.05608e-05
0.000237493
0.000498428
0.000819277
0.00120587
0.00166297
0.0021926
0.00279166
0.00344621
0.00413253
0.00480528
0.00539796
0.00582625
0.00607432
0.00595654
-0.000565294
-0.000606446
-0.000569472
-0.000505907
-0.000403817
-0.000260246
-6.97445e-05
0.000174691
0.000481177
0.000858728
0.00131653
0.00186228
0.00249897
0.00321984
0.00400469
0.0048047
0.00553672
0.00608054
0.0063997
0.0062167
-0.000870921
-0.000917414
-0.000887992
-0.00083679
-0.000751258
-0.000628221
-0.000461483
-0.000242723
3.83481e-05
0.000394157
0.000839049
0.00138831
0.00205493
0.0028425
0.00374165
0.00470716
0.00564054
0.00637296
0.00682084
0.00653836
-0.0012366
-0.00128944
-0.00126935
-0.00123372
-0.00116967
-0.0010742
-0.000940895
-0.000760676
-0.000521675
-0.000208523
0.000198195
0.000722146
0.00138953
0.00222275
0.00322776
0.00438655
0.00559758
0.00664512
0.00733765
0.00694427
-0.00165969
-0.00171997
-0.00171077
-0.00169389
-0.00165648
-0.00159644
-0.00150798
-0.00138243
-0.00120777
-0.000967384
-0.00063859
-0.000191031
0.000414881
0.00122412
0.00226982
0.00359261
0.00513586
0.00670703
0.00787475
0.00753137
-0.00213702
-0.00220579
-0.00220826
-0.00221246
-0.00220622
-0.00218919
-0.00215748
-0.00210447
-0.00202043
-0.00189107
-0.00169558
-0.00140349
-0.000970536
-0.000335512
0.000579039
0.00183294
0.00358869
0.00587699
0.00793665
0.00829818
-0.00266543
-0.00274352
-0.00275676
-0.00278248
-0.00280982
-0.00284139
-0.00287669
-0.00291329
-0.00294692
-0.00297071
-0.00297418
-0.00294215
-0.00285404
-0.0026846
-0.00239978
-0.00187528
-0.000660898
0.00213284
0.0058472
0.00825496
-0.00324267
-0.0033299
-0.00334958
-0.00339363
-0.00345309
-0.0035348
-0.00364281
-0.00378092
-0.00395382
-0.00416801
-0.00443412
-0.00477187
-0.00522485
-0.00589358
-0.00692299
-0.00825043
-0.00869154
-0.00574283
-0.000242492
0.00518841
-0.0038713
-0.00396771
-0.00398619
-0.00404068
-0.0041241
-0.00424943
-0.00442678
-0.00466774
-0.00498836
-0.00541371
-0.00598586
-0.00677967
-0.00793869
-0.00974156
-0.0125332
-0.0161617
-0.0189683
-0.0163701
-0.00995655
-0.00126565
-0.00455171
-0.00464524
-0.00463991
-0.00468616
-0.0047804
-0.0049395
-0.00517644
-0.00550911
-0.00596499
-0.00658677
-0.00744724
-0.0086726
-0.0104994
-0.0133236
-0.0176069
-0.0230083
-0.0283241
-0.0270263
-0.0213055
-0.00954061
-0.00531874
-0.00542598
-0.00538108
-0.00540569
-0.0054803
-0.00563659
-0.00589435
-0.0062787
-0.0068245
-0.00758462
-0.00865052
-0.0101716
-0.0124408
-0.0158604
-0.0210943
-0.0274524
-0.0352925
-0.0352091
-0.0309066
-0.0160666
-0.0062866
-0.00617855
-0.00601036
-0.00592062
-0.00595315
-0.00611069
-0.00639825
-0.00682981
-0.00743775
-0.0082744
-0.00943997
-0.0110667
-0.0135055
-0.0169634
-0.0225863
-0.0285763
-0.0375608
-0.0371802
-0.0339965
-0.0152291
-0.00689621
-0.00728888
-0.00698723
-0.00693669
-0.00685639
-0.00689552
-0.00707009
-0.00741092
-0.00795318
-0.00873678
-0.00986122
-0.0114092
-0.0137398
-0.0169456
-0.0219845
-0.0272489
-0.033781
-0.0329918
-0.0280739
-0.0013679
-0.0105836
-0.00795655
-0.00728959
-0.00661752
-0.00647596
-0.00657127
-0.00685366
-0.0072818
-0.0078809
-0.00866107
-0.00974529
-0.0111673
-0.0132538
-0.016002
-0.0199739
-0.023607
-0.027098
-0.0236327
-0.0132359
0.0287859
-0.00729149
-0.010161
-0.00916842
-0.00912905
-0.00862072
-0.00830871
-0.00816949
-0.00823311
-0.00854624
-0.00908405
-0.0099553
-0.0111807
-0.0131077
-0.0155852
-0.0194949
-0.02255
-0.024811
-0.0138097
0.0100035
0.0827522
-0.0327735
-0.00761738
-0.0061878
-0.00538093
-0.0050722
-0.00517821
-0.00558503
-0.00608058
-0.00678556
-0.00757603
-0.00874005
-0.0101027
-0.0121032
-0.0141963
-0.016426
-0.0154301
-0.0083266
0.0215307
0.0854169
0.211767
2.46327e-05
1.6109e-06
4.7335e-05
0.000135407
0.000272896
0.00046071
0.000700778
0.000995313
0.00134579
0.00175212
0.00221152
0.00271726
0.00325712
0.00381211
0.00435536
0.00485288
0.00526584
0.00555591
0.00571834
0.00568476
4.8667e-05
2.50389e-05
7.61925e-05
0.000164936
0.000300284
0.000483836
0.000718054
0.00100547
0.00134783
0.00174538
0.00219589
0.00269329
0.00322564
0.00377576
0.00431698
0.00481542
0.00523123
0.00552504
0.00569502
0.00565405
-5.74163e-06
-3.70033e-05
1.27176e-05
9.80057e-05
0.000228865
0.000407055
0.000635571
0.000917728
0.00125632
0.00165294
0.00210689
0.00261376
0.00316436
0.00374121
0.00431697
0.00485441
0.0053071
0.00562625
0.00580897
0.0057448
-0.000117551
-0.000154052
-0.000106911
-2.67471e-05
9.74573e-05
0.000267795
0.000488057
0.000762718
0.00109616
0.00149207
0.00195234
0.00247543
0.00305418
0.00367438
0.00430773
0.00491218
0.00543037
0.00579617
0.00600365
0.005908
-0.000294305
-0.000335529
-0.000292592
-0.000219559
-0.000104443
5.52828e-05
0.000264377
0.000528756
0.000854856
0.00124919
0.00171737
0.00226224
0.00288084
0.00356246
0.00427973
0.00498503
0.0056059
0.00604883
0.00629854
0.00615115
-0.000535009
-0.000581197
-0.000544049
-0.000480481
-0.000377641
-0.000232576
-3.95262e-05
0.000208996
0.000521771
0.000908723
0.00138024
0.00194542
0.00260876
0.00336477
0.00419289
0.00504077
0.00581668
0.006385
0.0067075
0.00647218
-0.000837689
-0.000889588
-0.000859935
-0.000808694
-0.000722309
-0.000597584
-0.000427942
-0.000204474
8.39314e-05
0.000450874
0.000912325
0.00148573
0.00218657
0.00301997
0.00397905
0.00501527
0.00601821
0.00679383
0.00724908
0.00687244
-0.00120007
-0.00125876
-0.00123842
-0.0012028
-0.0011379
-0.0010407
-0.000904323
-0.000719029
-0.00047198
-0.000146403
0.000279136
0.00083114
0.00153906
0.00242617
0.00351517
0.00477469
0.00609407
0.00722133
0.00792529
0.00737549
-0.00161927
-0.00168594
-0.00167656
-0.00165985
-0.00162182
-0.00156027
-0.00146894
-0.00133847
-0.00115581
-0.000902804
-0.000554524
-7.70835e-05
0.000574313
0.00145226
0.00258903
0.00403619
0.00573438
0.00745243
0.00862567
0.00807395
-0.00209178
-0.0021676
-0.00217004
-0.00217481
-0.00216843
-0.00215051
-0.00211666
-0.00205964
-0.00196879
-0.00182856
-0.00161621
-0.00129844
-0.000826561
-0.00013512
0.000850737
0.00220879
0.0041258
0.00664407
0.00871487
0.00894382
-0.00261387
-0.00269983
-0.00271336
-0.00274029
-0.00276833
-0.00280006
-0.00283457
-0.00286895
-0.00289843
-0.00291554
-0.0029094
-0.00286508
-0.00276463
-0.00259342
-0.00233807
-0.00187056
-0.000641026
0.00245614
0.00629931
0.00886825
-0.00318234
-0.00327838
-0.00329877
-0.00334495
-0.00340637
-0.0034898
-0.00359896
-0.00373746
-0.00391006
-0.00412398
-0.00439211
-0.00474059
-0.00522942
-0.00600151
-0.00726702
-0.00895347
-0.00963162
-0.00654945
-0.000996127
0.00504186
-0.00379836
-0.00390518
-0.00392517
-0.00398317
-0.00407014
-0.00419902
-0.00437971
-0.00462398
-0.00494862
-0.00538099
-0.00596878
-0.00680092
-0.00805169
-0.0100667
-0.0133009
-0.0176023
-0.0211268
-0.0188993
-0.0126542
-0.0030087
-0.00445898
-0.00456455
-0.00456138
-0.0046128
-0.00471283
-0.00487801
-0.00512093
-0.00545959
-0.0059226
-0.00655565
-0.00743835
-0.00871422
-0.0106553
-0.0137385
-0.0185498
-0.0247127
-0.0310114
-0.0304164
-0.0251253
-0.0125991
-0.0051979
-0.00532104
-0.00527938
-0.00531256
-0.00539559
-0.00556025
-0.0058257
-0.00621712
-0.00676996
-0.0075393
-0.00862087
-0.0101777
-0.012537
-0.0161601
-0.0218132
-0.0286659
-0.0369114
-0.0371121
-0.0336086
-0.0186419
-0.00611738
-0.00602857
-0.00586587
-0.00578758
-0.00583226
-0.00600214
-0.00630085
-0.00674136
-0.00735518
-0.00819525
-0.00936014
-0.010995
-0.0134653
-0.0170039
-0.0227669
-0.0290247
-0.036967
-0.0368435
-0.0349394
-0.0158928
-0.00664651
-0.00708121
-0.00678453
-0.0067595
-0.00669733
-0.00675316
-0.0069405
-0.00728978
-0.00783418
-0.00861337
-0.00972053
-0.0112464
-0.013562
-0.0167606
-0.0217626
-0.0268937
-0.0325841
-0.0316376
-0.0280634
-0.000383707
-0.010258
-0.00767011
-0.00699839
-0.00634726
-0.00622763
-0.0063482
-0.00665233
-0.00709631
-0.00770071
-0.00847648
-0.00954182
-0.0109161
-0.0129643
-0.0156876
-0.0195916
-0.0230886
-0.0260623
-0.022597
-0.0130724
0.0308093
-0.00670879
-0.00974514
-0.00877134
-0.00879657
-0.00832018
-0.00803884
-0.00792119
-0.00799823
-0.00831489
-0.00884449
-0.00969115
-0.0108794
-0.0127738
-0.0152499
-0.0191824
-0.0222347
-0.0243077
-0.0131891
0.0104909
0.0862623
-0.0322099
-0.00704857
-0.00562118
-0.00487587
-0.00462947
-0.00478696
-0.00523121
-0.00575364
-0.00647184
-0.00726295
-0.00840679
-0.00974828
-0.011713
-0.0137793
-0.0159687
-0.0148131
-0.00739482
0.0233057
0.0878574
0.21797
3.95267e-05
1.5481e-05
6.12318e-05
0.000149641
0.000288139
0.000477683
0.000720348
0.00101856
0.00137405
0.00178699
0.00225485
0.00277103
0.00332326
0.00389212
0.00444981
0.00496092
0.00538468
0.00568085
0.00584495
0.00580623
6.5348e-05
4.04692e-05
9.17822e-05
0.000180885
0.000317196
0.000502368
0.000739026
0.00102993
0.00137708
0.00178104
0.00223984
0.00274758
0.00329242
0.00385666
0.00441284
0.00492552
0.00535277
0.00565309
0.00582506
0.00577899
1.30203e-05
-1.97601e-05
3.0155e-05
0.000115794
0.000247619
0.000427446
0.000658462
0.000944248
0.00128793
0.00169147
0.00215455
0.00267309
0.00323811
0.00383169
0.00442557
0.00498065
0.00544782
0.0057751
0.00596006
0.00588806
-9.63761e-05
-0.000134586
-8.72034e-05
-6.67074e-06
0.000118548
0.000290613
0.000513551
0.000792164
0.00113125
0.00153501
0.00200588
0.00254283
0.00313922
0.00378059
0.00443761
0.00506587
0.00560396
0.00598076
0.00619094
0.00608202
-0.000270717
-0.000313808
-0.000270582
-0.00019714
-8.09088e-05
8.07241e-05
0.000292808
0.000561672
0.000894288
0.00129785
0.00177877
0.00234071
0.00298151
0.00369096
0.00444039
0.00517921
0.00582924
0.00628819
0.00654128
0.00636951
-0.000508937
-0.000557136
-0.000519658
-0.000455631
-0.000351559
-0.000204374
-7.96247e-06
0.000245671
0.000565991
0.000963824
0.00145069
0.00203677
0.00272622
0.00352102
0.00439345
0.00528948
0.00610935
0.00670253
0.00702917
0.00674733
-0.000808937
-0.000863003
-0.000832999
-0.000781283
-0.000693595
-0.000566596
-0.000393292
-0.000164171
0.000132719
0.00051214
0.000991661
0.00159086
0.00232865
0.0032071
0.00422522
0.00533017
0.00640012
0.00721629
0.00767605
0.00721152
-0.00116829
-0.00122933
-0.00120867
-0.00117264
-0.00110648
-0.00100702
-0.00086692
-0.000675752
-0.000419727
-8.07089e-05
0.000364646
0.000945466
0.00169454
0.00263881
0.0038027
0.00515594
0.00657534
0.00777249
0.00847533
0.00777506
-0.0015839
-0.00165314
-0.00164355
-0.00162664
-0.00158759
-0.00152407
-0.00142935
-0.00129337
-0.00110214
-0.000836099
-0.000468321
3.80437e-05
0.000731656
0.00166789
0.00288891
0.00444629
0.00627933
0.00812071
0.0092706
0.00850816
-0.00205193
-0.00213061
-0.00213305
-0.002138
-0.00213111
-0.00211188
-0.00207549
-0.00201413
-0.00191639
-0.00176564
-0.00153775
-0.00119741
-0.000693167
4.23126e-05
0.00108157
0.00251375
0.0045532
0.00725519
0.00928184
0.00935611
-0.00256816
-0.00265733
-0.00267121
-0.0026989
-0.00272724
-0.00275872
-0.00279212
-0.00282422
-0.00284993
-0.00286165
-0.00284872
-0.00279766
-0.00269493
-0.00253935
-0.00234246
-0.00197789
-0.000808495
0.00248401
0.00639977
0.00909437
-0.00312861
-0.00322827
-0.00324943
-0.00329719
-0.00336
-0.00344459
-0.00355456
-0.00369352
-0.00386661
-0.00408229
-0.00435653
-0.0047229
-0.00525869
-0.00614895
-0.0076798
-0.00979566
-0.0108279
-0.00759815
-0.00180732
0.00470546
-0.00373342
-0.00384452
-0.00386595
-0.00392661
-0.00401628
-0.00414793
-0.00433148
-0.00457907
-0.00490865
-0.00535033
-0.00595809
-0.00683506
-0.00818552
-0.0104198
-0.014117
-0.0191276
-0.0233237
-0.0211293
-0.0146064
-0.00424917
-0.00437767
-0.00448821
-0.00448716
-0.00454249
-0.00464672
-0.0048164
-0.00506409
-0.00540828
-0.00587901
-0.00652534
-0.00743414
-0.00876553
-0.010826
-0.0141591
-0.0194814
-0.0263361
-0.0332165
-0.0326778
-0.0270384
-0.0142542
-0.00509458
-0.00522407
-0.00518518
-0.00522428
-0.00531317
-0.00548384
-0.0057552
-0.00615271
-0.00671284
-0.00749319
-0.00859457
-0.0101936
-0.0126463
-0.0164476
-0.0224815
-0.0296691
-0.037864
-0.0376857
-0.0338901
-0.0194852
-0.00597929
-0.00589873
-0.00574063
-0.00567042
-0.00572271
-0.0059003
-0.00620619
-0.00665296
-0.00727204
-0.0081173
-0.00929001
-0.0109386
-0.0134507
-0.0170429
-0.0229305
-0.0292003
-0.036166
-0.0356158
-0.0335503
-0.015574
-0.00646996
-0.00692015
-0.00662282
-0.00661137
-0.00655891
-0.0066241
-0.00681856
-0.00717237
-0.00771817
-0.00849528
-0.0095968
-0.0111116
-0.0134211
-0.016606
-0.0215503
-0.0264936
-0.031516
-0.0298869
-0.0260364
0.000646988
-0.0100113
-0.00745067
-0.00678449
-0.00614994
-0.00603989
-0.00617149
-0.00648493
-0.00693505
-0.00754087
-0.00831245
-0.00936565
-0.0107147
-0.0127369
-0.0154203
-0.0192509
-0.0225689
-0.025078
-0.0211198
-0.0111644
0.0322874
-0.00644764
-0.00952272
-0.0085344
-0.00857936
-0.00810963
-0.00783764
-0.00772693
-0.00780671
-0.00812201
-0.00864327
-0.00947554
-0.0106403
-0.0125172
-0.0149726
-0.0188686
-0.0217979
-0.0234815
-0.0119793
0.0121486
0.0884103
-0.0319135
-0.00675329
-0.00531811
-0.00458347
-0.00435706
-0.00453469
-0.00499474
-0.00552624
-0.00624785
-0.00703493
-0.00816534
-0.00948948
-0.0114265
-0.0134584
-0.0155737
-0.0142726
-0.00649177
0.024771
0.0899955
0.220965
5.37846e-05
2.94741e-05
7.55007e-05
0.00016452
0.000304218
0.000495654
0.000741068
0.0010431
0.00140371
0.00182332
0.00229961
0.00282609
0.0033904
0.00397269
0.00454432
0.00506858
0.005503
0.0058057
0.00597227
0.00593005
8.03715e-05
5.51044e-05
0.000106733
0.00019646
0.000333968
0.000521007
0.000760375
0.00105505
0.00140728
0.0018179
0.00228517
0.00280332
0.00336056
0.00393869
0.00450945
0.00503602
0.00547459
0.00578181
0.00595646
0.00590691
2.93803e-05
-3.86677e-06
4.63912e-05
0.000132672
0.000265733
0.000447493
0.000681337
0.000971103
0.00132022
0.00173098
0.00220342
0.00273371
0.00331299
0.0039229
0.0045343
0.00510641
0.00558767
0.00592334
0.00611124
0.00603348
-7.82937e-05
-0.000117035
-6.9273e-05
1.19397e-05
0.000138468
0.000312594
0.00053858
0.000821541
0.00116666
0.0015786
0.00206028
0.00261112
0.00322486
0.00388665
0.00456627
0.00521712
0.0057742
0.00616198
0.00637552
0.00625611
-0.000250746
-0.000294419
-0.000250778
-0.000176604
-5.8957e-05
0.000104922
0.00032037
0.000594104
0.000933596
0.00134666
0.00184042
0.00241926
0.00308173
0.00381755
0.00459716
0.00536723
0.00604442
0.00651868
0.00677552
0.00658347
-0.00048691
-0.000535739
-0.000497817
-0.000433012
-0.000327419
-0.000177795
2.23176e-05
0.00028139
0.000609519
0.00101835
0.00152043
0.00212718
0.00284438
0.00367265
0.00458559
0.00552561
0.00638551
0.00700132
0.00733163
0.00700989
-0.000784634
-0.000839386
-0.000808935
-0.000756434
-0.000667175
-0.000537619
-0.000360374
-0.000125372
0.000180102
0.000571842
0.00106878
0.00169205
0.00246152
0.00338389
0.00445589
0.0056225
0.00675227
0.00760399
0.00806542
0.00752419
-0.00114139
-0.00120318
-0.00118213
-0.00114539
-0.00107773
-0.000975761
-0.000831718
-0.000634569
-0.00036967
-1.76951e-05
0.00044633
0.00105373
0.00184004
0.00283532
0.00406544
0.00550089
0.00700823
0.00826561
0.00895982
0.00812592
-0.00155391
-0.00162401
-0.00161413
-0.00159671
-0.00155641
-0.0014907
-0.00139242
-0.00125095
-0.00105146
-0.00077324
-0.000387725
0.000144272
0.000874472
0.0018609
0.00315283
0.00480493
0.00675544
0.00870433
0.00981733
0.00886023
-0.00201811
-0.00209776
-0.00210013
-0.00210491
-0.00209725
-0.00207646
-0.0020374
-0.00197179
-0.00186764
-0.00170753
-0.00146632
-0.00110736
-0.000577355
0.00019215
0.00127265
0.00276272
0.00490833
0.00777982
0.00973811
0.00965105
-0.00252939
-0.00261966
-0.0026338
-0.00266184
-0.00269011
-0.002721
-0.00275311
-0.00278301
-0.00280551
-0.00281307
-0.00279569
-0.00274168
-0.00264218
-0.00250888
-0.00237619
-0.00211576
-0.00098702
0.00251741
0.00645593
0.00923064
-0.00308319
-0.00318412
-0.00320595
-0.00325472
-0.00331836
-0.00340361
-0.00351402
-0.00365337
-0.00382738
-0.00404588
-0.00432817
-0.0047151
-0.00530003
-0.00630622
-0.00809295
-0.0106167
-0.011956
-0.00850365
-0.00247126
0.00444544
-0.00367899
-0.00379164
-0.00381427
-0.00387676
-0.0039683
-0.00410192
-0.00428768
-0.00453827
-0.0048729
-0.00532456
-0.00595342
-0.00687622
-0.00832569
-0.0107711
-0.0149155
-0.0206124
-0.0253758
-0.0229908
-0.0160571
-0.00516291
-0.0043108
-0.00442314
-0.00442385
-0.00448191
-0.00458903
-0.00476189
-0.00501323
-0.00536218
-0.00584038
-0.00650038
-0.00743631
-0.00882396
-0.0110044
-0.0145801
-0.020397
-0.0279283
-0.0352479
-0.0344332
-0.0284458
-0.015418
-0.00501201
-0.00514383
-0.00510711
-0.00515007
-0.0052428
-0.00541752
-0.00569313
-0.00609558
-0.0066626
-0.0074546
-0.00857863
-0.0102221
-0.0127762
-0.0167574
-0.0231639
-0.0307419
-0.0389425
-0.0382315
-0.0342531
-0.0199821
-0.00587278
-0.00579551
-0.00564101
-0.00557619
-0.00563329
-0.00581565
-0.00612609
-0.00657712
-0.00720065
-0.00805185
-0.009236
-0.0109052
-0.0134819
-0.0171717
-0.0231275
-0.0295088
-0.0359924
-0.0349976
-0.0328243
-0.0151509
-0.00634764
-0.00680316
-0.00650399
-0.00649918
-0.00645136
-0.00652128
-0.00671934
-0.00707516
-0.00762144
-0.00839734
-0.00949834
-0.0110113
-0.0133305
-0.0165207
-0.0214399
-0.0262774
-0.030921
-0.0287284
-0.0249602
0.00163279
-0.00983496
-0.00729147
-0.00663388
-0.00601101
-0.00590599
-0.00604192
-0.0063585
-0.00680979
-0.00741463
-0.00818132
-0.00922786
-0.0105615
-0.0125728
-0.0152218
-0.0190028
-0.0221824
-0.0243651
-0.0200565
-0.0100472
0.0335545
-0.00631853
-0.00940029
-0.00839301
-0.00844377
-0.00797256
-0.00770055
-0.00758939
-0.00766633
-0.00797807
-0.00849135
-0.00931551
-0.0104643
-0.0123366
-0.0147607
-0.0186267
-0.0214357
-0.0228674
-0.0110356
0.013325
0.0900555
-0.031732
-0.00658062
-0.00514024
-0.00440593
-0.00418653
-0.00437083
-0.0048373
-0.00536962
-0.006092
-0.00687254
-0.00799779
-0.0093057
-0.0112309
-0.0132224
-0.0152757
-0.0138186
-0.00578808
0.0259453
0.0914635
0.222939
6.64186e-05
4.2162e-05
8.85821e-05
0.00017833
0.000319264
0.000512556
0.000760609
0.00106625
0.00143165
0.00185742
0.00234144
0.00287726
0.00345247
0.00404681
0.00463091
0.00516694
0.00561102
0.00591987
0.00608907
0.00604433
9.33271e-05
6.80205e-05
0.000120045
0.000210508
0.000349265
0.000538172
0.000780189
0.00107848
0.00143554
0.00185238
0.00232749
0.00285516
0.00342365
0.00401429
0.00459812
0.00513711
0.00558592
0.00589961
0.00607703
0.006025
4.32103e-05
9.90622e-06
6.05807e-05
0.000147627
0.000281987
0.000465698
0.000702327
0.000995935
0.00135021
0.00176774
0.00224881
0.00278984
0.00338199
0.0040065
0.00463349
0.00522068
0.00571448
0.00605787
0.00624877
0.0061667
-6.32518e-05
-0.000102063
-5.38556e-05
2.81666e-05
0.000156075
0.000332286
0.000561277
0.000848432
0.00119927
0.00161884
0.00211045
0.00267389
0.00330317
0.00398304
0.00468249
0.00535305
0.00592673
0.00632434
0.00654117
0.00641364
-0.000234272
-0.000278022
-0.000233906
-0.000158871
-3.97442e-05
0.000126391
0.000345128
0.000623521
0.000969468
0.00139131
0.00189675
0.00249076
0.00317238
0.00393128
0.004737
0.00553388
0.00623431
0.00672179
0.00698207
0.00677396
-0.000468811
-0.000517723
-0.000479306
-0.000413599
-0.000306436
-0.000154394
4.92918e-05
0.000313499
0.000648864
0.00106772
0.00158346
0.00220849
0.00294963
0.00380696
0.00475442
0.00573157
0.00662504
0.0072597
0.00759288
0.00723921
-0.0007647
-0.000819546
-0.000788606
-0.0007352
-0.000644338
-0.000512277
-0.00033128
-9.08068e-05
0.000222498
0.000625276
0.00113756
0.00178174
0.00257866
0.00353798
0.00465517
0.00587311
0.0070524
0.00793305
0.00839428
0.00779128
-0.00111935