/*--------------------------------*- C++ -*----------------------------------*\
  =========                 |
  \\      /  F ield         | OpenFOAM: The Open Source CFD Toolbox
   \\    /   O peration     | Website:  https://openfoam.org
    \\  /    A nd           | Version:  10
     \\/     M anipulation  |
\*---------------------------------------------------------------------------*/
FoamFile
{
    format      ascii;
    class       volVectorField;
    location    "1.025";
    object      U;
}
// * * * * * * * * * * * * * * * * * * * * * * * * * * * * * * * * * * * * * //

dimensions      [0 1 -1 0 0 0 0];

internalField   nonuniform List<vector> 
496
(
(9.9559 0.0946398 0)
(9.94879 -0.226443 0)
(10.2099 -0.108597 0)
(10.8023 -0.252951 0)
(10.1134 0.494389 0)
(9.75667 -1.28038 0)
(10.3175 -0.332282 0)
(10.7945 -1.1963 0)
(11.0723 1.33825 0)
(8.79812 -2.8354 0)
(11.3767 -0.0920539 0)
(10.4097 -3.98007 0)
(12.5189 1.48031 0)
(7.66617 -2.48119 0)
(13.4694 0.650597 0)
(9.528 -6.33512 0)
(11.4727 -0.205625 2.68468e-18)
(12.207 -0.220807 -1.42407e-20)
(11.6711 -0.49189 -6.53156e-19)
(12.4437 -0.00481975 2.10862e-18)
(12.9656 -2.03363 -2.03461e-18)
(12.7182 -0.551385 -2.09463e-18)
(13.8412 -5.40686 -3.28329e-17)
(14.7759 -4.32785 6.19172e-17)
(12.7883 -0.173906 0)
(13.1303 -0.17513 0)
(13.3568 -0.0639122 0)
(13.4078 0.0151253 0)
(13.0644 0.0111534 0)
(13.5086 -0.378179 0)
(13.8186 -0.525597 0)
(13.9461 -0.564859 0)
(12.536 0.787719 0)
(12.5489 0.539697 0)
(13.1279 0.397523 0)
(13.4825 0.512476 0)
(12.2373 -2.98954 0)
(10.0788 -1.87138 0)
(9.17959 -0.31102 0)
(11.1661 -0.796267 0)
(13.4761 0.152051 0)
(13.4228 0.229767 0)
(13.4358 0.313252 0)
(13.3209 0.337417 0)
(13.2897 0.356873 0)
(13.1278 0.352594 0)
(13.0826 0.364209 0)
(12.8858 0.37635 0)
(12.7891 0.38967 0)
(12.5172 0.395092 0)
(12.3768 0.39378 0)
(12.0843 0.399536 0)
(11.9766 0.400271 0)
(11.7315 0.403322 0)
(11.7198 0.389801 0)
(11.5638 0.359518 0)
(11.6283 0.312023 0)
(11.4716 0.301473 0)
(11.545 0.308806 0)
(11.3687 0.354018 0)
(11.4074 0.363919 0)
(11.078 0.413468 0)
(10.9677 0.436135 0)
(10.5103 0.517175 0)
(10.3998 0.5064 0)
(10.0041 0.522385 0)
(10.0432 0.403871 0)
(9.89309 0.361215 0)
(10.1388 0.222011 0)
(10.21 0.207621 0)
(10.4763 0.133433 0)
(10.631 0.160249 0)
(10.7734 0.153119 0)
(10.8895 0.193159 0)
(10.7875 0.264988 0)
(10.7344 0.295861 0)
(10.4398 0.395774 0)
(10.2056 0.389785 0)
(9.94873 0.476583 0)
(9.56379 0.471523 0)
(14.0344 -0.472887 0)
(13.9813 -0.379892 0)
(13.9646 -0.282936 0)
(13.8401 -0.232843 0)
(13.8096 -0.205848 0)
(13.6947 -0.185978 0)
(13.6933 -0.138873 0)
(13.5551 -0.0823422 0)
(13.4872 -0.0301618 0)
(13.2649 -0.00432454 0)
(13.1627 0.00214877 0)
(12.9363 -0.0301175 0)
(12.8596 -0.0733221 0)
(12.6633 -0.155569 0)
(12.6366 -0.205514 0)
(12.4948 -0.25961 0)
(12.569 -0.258638 0)
(12.5168 -0.274296 0)
(12.6443 -0.184499 0)
(12.5609 -0.102341 0)
(12.5997 0.0434701 0)
(12.4007 0.0934719 0)
(12.3242 0.104205 0)
(12.0313 0.00265453 0)
(11.8626 -0.112386 0)
(11.5622 -0.218807 0)
(11.4438 -0.33223 0)
(11.3763 -0.384562 0)
(11.459 -0.513726 0)
(11.6293 -0.500198 0)
(11.7851 -0.532014 0)
(12.0345 -0.395118 0)
(12.1744 -0.327355 0)
(12.406 -0.154851 0)
(12.461 -0.0529029 0)
(12.459 0.0629373 0)
(12.3981 0.163235 0)
(12.1525 0.118575 0)
(12.1319 0.14244 0)
(11.7325 -0.0973565 0)
(13.7273 0.423656 0)
(13.6867 0.380522 0)
(13.7106 0.349161 0)
(13.5576 0.355503 0)
(13.5366 0.3466 0)
(13.4496 0.385391 0)
(13.528 0.459631 0)
(13.4402 0.562868 0)
(13.4486 0.67197 0)
(13.2818 0.771339 0)
(13.2105 0.857167 0)
(12.9927 0.895515 0)
(12.889 0.855794 0)
(12.7039 0.724668 0)
(12.6752 0.516519 0)
(12.5979 0.309004 0)
(12.5871 0.129751 0)
(12.572 0.0859008 0)
(12.664 0.107517 0)
(12.7998 0.275142 0)
(12.9215 0.459104 0)
(12.988 0.761269 0)
(12.8597 0.939372 0)
(12.7187 1.16048 0)
(12.4132 1.08855 0)
(12.2764 1.01105 0)
(12.0138 0.574992 0)
(11.9611 0.264133 0)
(11.7994 -0.19617 0)
(11.8561 -0.349783 0)
(11.8513 -0.497365 0)
(11.9531 -0.456488 0)
(12.1071 -0.296505 0)
(12.2347 -0.226485 0)
(12.5082 0.159326 0)
(12.6218 0.189822 0)
(12.9354 0.666922 0)
(12.8631 0.674796 0)
(13.0499 1.0048 0)
(12.729 1.0267 0)
(9.80221 -0.486914 0)
(9.83206 -0.353938 0)
(10.0194 -0.276436 0)
(10.0058 -0.350939 0)
(9.57061 -0.236535 0)
(9.96345 -0.17727 0)
(9.8243 -0.189552 0)
(10.038 -0.116319 0)
(10.1493 -0.0699305 0)
(10.3029 0.000855615 0)
(10.4614 0.0817449 0)
(10.5604 0.150033 0)
(10.5186 0.204577 0)
(10.3639 0.19935 0)
(10.0375 0.149402 0)
(9.78222 0.0457951 0)
(9.5075 -0.0561035 0)
(9.49822 -0.17845 0)
(9.46457 -0.261683 0)
(9.8432 -0.273211 0)
(10.1042 -0.19996 0)
(10.7424 -0.0476019 0)
(11.0295 0.107327 0)
(11.6167 0.228059 0)
(11.6397 0.232819 0)
(11.8788 0.188086 0)
(11.4222 0.0889908 0)
(11.1909 0.0610503 0)
(10.429 0.0106157 0)
(9.94494 -0.0376783 0)
(9.42053 -0.204695 0)
(9.0279 -0.306326 0)
(9.21484 -0.418399 0)
(9.01147 -0.459298 0)
(9.76045 -0.415535 0)
(9.70012 -0.412211 0)
(10.5325 -0.240379 0)
(10.7929 -0.210786 0)
(11.2898 -0.0225671 0)
(11.8739 0.0188196 0)
(11.8201 0.627316 -1.04299e-17)
(8.38185 -0.838975 -1.7752e-17)
(10.967 0.127278 3.09366e-17)
(5.27069 -4.60649 -8.37922e-17)
(12.6328 -0.503745 1.02939e-17)
(7.58628 0.785261 1.74422e-17)
(12.0179 0.196164 -3.0455e-17)
(4.53799 4.71956 8.24872e-17)
(0.974437 2.64942 0)
(-4.56174 -3.49736 0)
(8.90006 2.21809 0)
(-2.77086 2.11961 0)
(-6.09566 -1.79705 3.58025e-17)
(6.67227 -4.11547 0)
(-10.4721 1.235 0)
(3.89563 3.1227 0)
(-1.94157 -2.34614 0)
(1.127 0.592623 0)
(-0.363684 0.711965 0)
(-0.535593 0.185672 0)
(-0.617808 0.30099 0)
(0.758341 0.706256 0)
(-0.349606 0.142221 0)
(0.896137 0.594062 0)
(0.798085 0.468981 0)
(1.13212 0.546811 0)
(1.51044 0.67387 0)
(1.69203 0.762362 0)
(1.925 0.833579 0)
(2.09048 0.829038 0)
(2.27772 0.728639 0)
(2.46246 0.484004 0)
(2.6711 0.186314 0)
(3.05842 -0.116619 0)
(3.356 -0.304946 0)
(3.9046 -0.355048 0)
(4.20105 -0.262952 0)
(4.76195 -0.0289609 0)
(4.90154 0.243462 0)
(5.21774 0.520167 0)
(5.06998 0.733407 0)
(5.11614 0.88479 0)
(4.77599 0.903467 0)
(4.81514 0.802544 0)
(4.47538 0.55084 0)
(4.65379 0.269884 0)
(4.32389 -0.036561 0)
(4.65354 -0.257287 0)
(4.36542 -0.420561 0)
(4.77495 -0.508375 0)
(4.72273 -0.456915 0)
(5.01203 -0.423914 0)
(5.32465 -0.132751 0)
(5.33939 -0.0115558 0)
(5.72273 0.283836 0)
(5.67999 0.578061 0)
(-1.29549 -0.00623231 0)
(0.191447 -1.4146 0)
(-2.19687 1.40431 0)
(1.37401 -0.53733 0)
(-1.50383 -0.75642 0)
(0.818388 -0.608286 0)
(-0.698061 -0.479346 0)
(0.780487 -0.747169 0)
(0.46453 -0.628538 0)
(0.825566 -0.503789 0)
(1.18472 -0.336734 0)
(1.44881 -0.166681 0)
(1.83852 -0.0563611 0)
(2.27437 -0.025085 0)
(2.67782 -0.108906 0)
(3.05859 -0.267967 0)
(3.27682 -0.530797 0)
(3.5532 -0.779496 0)
(3.49728 -0.972935 0)
(3.66438 -1.01458 0)
(3.52552 -0.88632 0)
(3.83335 -0.601182 0)
(3.7881 -0.20604 0)
(4.18085 0.196988 0)
(4.23606 0.474374 0)
(4.67961 0.640831 0)
(4.79724 0.649619 0)
(5.21176 0.568124 0)
(5.3187 0.38074 0)
(5.54614 0.153865 0)
(5.50197 -0.11823 0)
(5.45038 -0.385727 0)
(5.2436 -0.620403 0)
(5.03511 -0.806367 0)
(4.75202 -0.853682 0)
(4.70336 -0.901383 0)
(4.38685 -0.638013 0)
(4.67991 -0.57951 0)
(4.39563 -0.215505 0)
(4.81675 0.0164231 0)
(11.696 -1.66166 0)
(8.52996 2.78461 0)
(12.3026 -0.970166 0)
(10.7621 6.7736 0)
(10.6768 -1.44492 0)
(9.32523 3.09587 0)
(11.1238 0.166378 0)
(11.0397 4.21055 0)
(9.96166 -0.561981 0)
(9.90385 1.34066 0)
(10.15 0.324348 0)
(10.935 1.15295 0)
(9.93437 -0.0963775 0)
(9.94567 0.192944 0)
(10.1471 0.108927 0)
(10.7941 0.2222 0)
(12.5177 5.31228 4.06113e-17)
(16.313 4.55032 -6.85383e-17)
(13.0571 2.18691 0)
(13.5263 0.517884 0)
(11.6246 0.463731 0)
(12.6262 -0.161441 0)
(11.4547 0.214701 0)
(12.2313 0.201836 0)
(9.56492 2.65968 0)
(10.6075 1.70924 0)
(7.71975 1.01007 0)
(8.92565 0.0527325 0)
(12.9268 -0.609017 0)
(13.0505 -0.959306 0)
(13.338 -0.586208 0)
(13.6703 -0.234341 0)
(13.1918 -0.127712 0)
(13.6137 0.200415 0)
(13.8993 0.503943 0)
(13.9906 0.608049 0)
(12.7915 0.182493 0)
(13.1137 0.198363 0)
(13.298 0.098457 0)
(13.3201 0.0228218 0)
(8.4757 -0.294797 0)
(10.5332 -0.159881 0)
(9.27116 0.120788 0)
(9.76405 -0.0500784 0)
(9.66225 0.0464228 0)
(9.87713 -0.104462 0)
(9.64247 -0.101884 0)
(9.70755 -0.203943 0)
(9.52653 -0.178365 0)
(9.48814 -0.14152 0)
(9.38553 -0.087905 0)
(9.46787 -0.0133416 0)
(9.49527 0.0484097 0)
(9.8066 0.0628369 0)
(10.0396 0.0276409 0)
(10.4816 -0.0612619 0)
(10.6969 -0.168821 0)
(10.9491 -0.272156 0)
(10.8102 -0.306546 0)
(10.5603 -0.299608 0)
(10.0506 -0.236226 0)
(9.57059 -0.173574 0)
(9.22356 -0.0667737 0)
(8.90457 0.0751815 0)
(8.97764 0.23671 0)
(8.99224 0.324627 0)
(9.50543 0.329332 0)
(9.78525 0.292307 0)
(10.4124 0.206287 0)
(10.8398 0.141134 0)
(11.3039 0.060476 0)
(11.798 0.0290167 0)
(11.8477 0.0216838 0)
(12.163 0.0228543 0)
(11.5306 0.0551731 0)
(11.4909 0.0149752 0)
(10.4263 0.0251833 0)
(10.2108 0.0125077 0)
(9.47123 0.0462856 0)
(9.3007 0.140095 0)
(14.002 -0.0610265 0)
(14.1263 -0.187283 0)
(14.0879 -0.207457 0)
(13.9371 -0.292924 0)
(13.8555 -0.376699 0)
(13.6875 -0.444752 0)
(13.6181 -0.460458 0)
(13.4572 -0.458914 0)
(13.3926 -0.392302 0)
(13.2866 -0.333505 0)
(13.2719 -0.276473 0)
(13.2462 -0.288595 0)
(13.2878 -0.310741 0)
(13.3324 -0.43273 0)
(13.3617 -0.543849 0)
(13.3279 -0.740531 0)
(13.1784 -0.84578 0)
(12.9727 -0.942495 0)
(12.7627 -0.847375 0)
(12.6285 -0.690681 0)
(12.5657 -0.395417 0)
(12.4495 -0.105347 0)
(12.4524 0.104286 0)
(12.3958 0.227058 0)
(12.5755 0.171434 0)
(12.5721 0.139103 0)
(12.8629 -0.0959363 0)
(12.9119 -0.214253 0)
(13.1942 -0.482388 0)
(13.1553 -0.616079 0)
(13.2266 -0.774844 0)
(13.0817 -0.867361 0)
(12.9264 -0.767578 0)
(12.8062 -0.704118 0)
(12.5378 -0.298197 0)
(12.511 -0.157589 0)
(12.2499 0.233155 0)
(12.3085 0.204577 0)
(12.184 0.373123 0)
(12.2377 0.184696 0)
(14.061 0.519599 0)
(14.0148 0.348532 0)
(13.9912 0.173473 0)
(13.8562 0.0630332 0)
(13.7958 -0.0187403 0)
(13.6136 -0.039648 0)
(13.5408 -0.0429181 0)
(13.3695 -0.00967359 0)
(13.3237 0.0257278 0)
(13.1694 0.0626954 0)
(13.164 0.0526961 0)
(13.0687 0.03302 0)
(13.0957 -0.0244896 0)
(12.9804 -0.0722714 0)
(12.9411 -0.142083 0)
(12.7358 -0.168607 0)
(12.5928 -0.169626 0)
(12.3048 -0.100938 0)
(12.115 -0.00894328 0)
(11.8655 0.0786866 0)
(11.8143 0.160862 0)
(11.7668 0.208618 0)
(11.9034 0.284987 0)
(11.9641 0.279261 0)
(12.1515 0.25289 0)
(12.1847 0.146417 0)
(12.3107 0.035831 0)
(12.2051 -0.0476629 0)
(12.2083 -0.130846 0)
(11.969 -0.0823191 0)
(11.9064 -0.089779 0)
(11.6348 0.0745154 0)
(11.5988 0.121627 0)
(11.3772 0.294937 0)
(11.3932 0.358083 0)
(11.3249 0.42985 0)
(11.4386 0.472233 0)
(11.5633 0.392848 0)
(11.6753 0.392625 0)
(11.921 0.215117 0)
(13.3636 -0.104993 0)
(13.3123 -0.188274 0)
(13.3149 -0.27699 0)
(13.1878 -0.309944 0)
(13.1325 -0.341608 0)
(12.9395 -0.338223 0)
(12.8554 -0.325001 0)
(12.645 -0.300157 0)
(12.5622 -0.27148 0)
(12.3356 -0.256081 0)
(12.2788 -0.245551 0)
(12.1092 -0.263453 0)
(12.1197 -0.27218 0)
(11.9413 -0.289178 0)
(11.8879 -0.285727 0)
(11.5785 -0.297288 0)
(11.3948 -0.30355 0)
(10.9743 -0.342515 0)
(10.8113 -0.352593 0)
(10.5113 -0.348671 0)
(10.5379 -0.281541 0)
(10.4148 -0.237957 0)
(10.5866 -0.172981 0)
(10.568 -0.163971 0)
(10.7389 -0.135341 0)
(10.6735 -0.170583 0)
(10.7268 -0.186823 0)
(10.5771 -0.246542 0)
(10.4899 -0.27134 0)
(10.2099 -0.33607 0)
(10.0545 -0.36145 0)
(9.75967 -0.398911 0)
(9.72388 -0.367728 0)
(9.49107 -0.361034 0)
(9.63685 -0.26021 0)
(9.50982 -0.242142 0)
(9.80468 -0.142371 0)
(9.82492 -0.155928 0)
(10.0722 -0.0985354 0)
(10.1634 -0.145045 0)
)
;

boundaryField
{
    inlet
    {
        type            fixedValue;
        value           uniform (10 0 0);
    }
    outlet
    {
        type            zeroGradient;
    }
    obstacle
    {
        type            noSlip;
    }
    upperWall
    {
        type            noSlip;
    }
    lowerWall
    {
        type            noSlip;
    }
    frontAndBack
    {
        type            empty;
    }
}


// ************************************************************************* //
