/*--------------------------------*- C++ -*----------------------------------*\
  =========                 |
  \\      /  F ield         | OpenFOAM: The Open Source CFD Toolbox
   \\    /   O peration     | Website:  https://openfoam.org
    \\  /    A nd           | Version:  10
     \\/     M anipulation  |
\*---------------------------------------------------------------------------*/
FoamFile
{
    format      ascii;
    class       volScalarField;
    location    "2.95";
    object      p;
}
// * * * * * * * * * * * * * * * * * * * * * * * * * * * * * * * * * * * * * //

dimensions      [0 2 -2 0 0 0 0];

internalField   nonuniform List<scalar> 
400
(
-1.67817e-09
-3.01451e-05
-4.35621e-06
4.99038e-05
0.000137392
0.000258138
0.000411293
0.000595477
0.000808352
0.00104634
0.00130441
0.00157586
0.00185224
0.00212342
0.00237788
0.00260324
0.00278683
0.00291714
0.00299307
0.00297363
2.95507e-05
-1.98819e-06
2.37363e-05
7.52988e-05
0.000158636
0.000274292
0.000421766
0.00060001
0.000807007
0.00103949
0.00129268
0.00156
0.00183343
0.00210284
0.00235662
0.00258224
0.00276667
0.0028983
0.00297689
0.00295611
6.85965e-07
-3.50031e-05
-1.05949e-05
3.91597e-05
0.000120833
0.000235214
0.000382134
0.000560939
0.000770007
0.00100643
0.00126577
0.00154203
0.00182663
0.00210919
0.0023775
0.00261793
0.00281596
0.00295816
0.00304374
0.00301984
-6.10771e-05
-0.000100763
-7.80019e-05
-3.03426e-05
4.96025e-05
0.000163048
0.000310359
0.000491485
0.000705429
0.000949875
0.00122085
0.00151259
0.00181689
0.00212275
0.00241669
0.00268326
0.00290548
0.0030668
0.0031652
0.00313979
-0.000161154
-0.000205548
-0.000184827
-0.000139547
-6.12945e-05
5.17207e-05
0.000200587
0.000386074
0.000608045
0.000865034
0.00115381
0.00146904
0.00180271
0.00214335
0.00247609
0.00278282
0.00304274
0.00323436
0.00335329
0.00332745
-0.000300739
-0.000351072
-0.000333025
-0.000290853
-0.00021485
-0.000102481
4.82868e-05
0.000239302
0.000471584
0.000744836
0.00105693
0.00140336
0.00177674
0.00216516
0.00255218
0.00291638
0.00323153
0.00346867
0.00361909
0.00359452
-0.000481139
-0.000538948
-0.000524568
-0.000486871
-0.000414514
-0.000304033
-0.000152189
4.42538e-05
0.000287831
0.000579849
0.000919774
0.00130451
0.00172802
0.00217845
0.00263802
0.00308152
0.00347547
0.00377986
0.0039781
0.0039586
-0.000704185
-0.000771356
-0.000762094
-0.000731016
-0.000664742
-0.00055866
-0.00040804
-0.000207915
4.61815e-05
0.000357677
0.00072828
0.00115711
0.0016407
0.00216828
0.00272166
0.00327205
0.00377715
0.00418087
0.0044522
0.00444667
-0.000972013
-0.00105082
-0.00104866
-0.00102727
-0.000970761
-0.000873137
-0.000727867
-0.000527896
-0.000266395
6.27356e-05
0.000464198
0.000940331
0.00149216
0.00211176
0.00278272
0.00347424
0.00413475
0.00468636
0.00507109
0.00510065
-0.00128699
-0.00138015
-0.00138761
-0.00138003
-0.00133843
-0.00125514
-0.00112152
-0.000928081
-0.000665265
-0.000323784
0.00010479
0.000626586
0.00125102
0.00197453
0.00278716
0.00366032
0.00453529
0.00530946
0.00587336
0.00598859
-0.00165176
-0.00176244
-0.00178256
-0.00179403
-0.00177407
-0.00171304
-0.00159981
-0.0014222
-0.0011677
-0.000823514
-0.000376317
0.00018842
0.000875896
0.00170653
0.00267971
0.00377751
0.00494214
0.00605134
0.00690549
0.00722658
-0.00206957
-0.00220125
-0.00223727
-0.00227416
-0.0022843
-0.0022556
-0.00217407
-0.00202463
-0.00179199
-0.00146035
-0.0010126
-0.000429688
0.000309859
0.00123676
0.00237314
0.00372925
0.00526973
0.0068737
0.00821346
0.00901488
-0.00254523
-0.00270083
-0.0027556
-0.0028253
-0.00287576
-0.00289168
-0.00285557
-0.00274935
-0.00255538
-0.00225599
-0.00183199
-0.00126074
-0.000515518
0.0004718
0.00173803
0.00334819
0.00533621
0.0076354
0.00975314
0.0117359
-0.00308796
-0.00326797
-0.00334107
-0.00345178
-0.0035549
-0.00363003
-0.00365518
-0.00360898
-0.00347214
-0.00322718
-0.00285558
-0.00233099
-0.00161017
-0.000660022
0.000612829
0.00236317
0.00476939
0.00792648
0.0112751
0.0158357
-0.00370257
-0.00391613
-0.00400427
-0.00416628
-0.00433339
-0.00448158
-0.0045835
-0.00461381
-0.00455195
-0.00438331
-0.00409801
-0.00368568
-0.00312702
-0.00238377
-0.00135006
0.000211806
0.00268556
0.00675769
0.0116355
0.0206985
-0.0045026
-0.00454807
-0.00463467
-0.00483617
-0.00511029
-0.00538861
-0.00561936
-0.00576189
-0.00579457
-0.00571267
-0.00552583
-0.00524768
-0.00489389
-0.00445677
-0.00386198
-0.00300538
-0.00150976
0.00196062
0.0062155
0.0215978
-0.00511311
-0.0057337
-0.00575295
-0.00613764
-0.00646478
-0.00677641
-0.00703338
-0.00720549
-0.00727877
-0.00725279
-0.00715772
-0.00704185
-0.00699688
-0.00714645
-0.00766578
-0.0088013
-0.011419
-0.0102833
-0.00780374
0.0174735
-0.00812173
-0.00582258
-0.00583227
-0.00601254
-0.00659361
-0.00723359
-0.00782271
-0.00826752
-0.00853986
-0.00863247
-0.00862226
-0.00857804
-0.00871648
-0.00926322
-0.0108548
-0.0135148
-0.0204059
-0.0226086
-0.0199431
0.0213223
-0.00533641
-0.00853452
-0.00830867
-0.00929908
-0.00981501
-0.0102959
-0.0106578
-0.0108441
-0.010879
-0.0107384
-0.0105276
-0.0103711
-0.0104711
-0.0113118
-0.0138553
-0.0175487
-0.0277684
-0.0282252
-0.0144165
0.0558335
-0.0287714
-0.00473066
-0.00464964
-0.00522084
-0.00618945
-0.0073298
-0.00841223
-0.00919952
-0.00975692
-0.00991676
-0.0100675
-0.00998425
-0.0104082
-0.0109624
-0.012612
-0.0133567
-0.0119551
0.00582771
0.0596481
0.182997
)
;

boundaryField
{
    movingWall
    {
        type            zeroGradient;
    }
    fixedWalls
    {
        type            zeroGradient;
    }
    frontAndBack
    {
        type            empty;
    }
}


// ************************************************************************* //
