/*--------------------------------*- C++ -*----------------------------------*\
  =========                 |
  \\      /  F ield         | OpenFOAM: The Open Source CFD Toolbox
   \\    /   O peration     | Website:  https://openfoam.org
    \\  /    A nd           | Version:  10
     \\/     M anipulation  |
\*---------------------------------------------------------------------------*/
FoamFile
{
    format      ascii;
    class       volScalarField;
    location    "4";
    object      p;
}
// * * * * * * * * * * * * * * * * * * * * * * * * * * * * * * * * * * * * * //

dimensions      [0 2 -2 0 0 0 0];

internalField   nonuniform List<scalar> 
400
(
6.71452e-09
-2.48101e-05
-1.44257e-05
2.56899e-05
9.46569e-05
0.000193163
0.000321692
0.000480242
0.000667991
0.000882893
0.00112127
0.00137747
0.0016435
0.00190901
0.00216146
0.00238677
0.00257047
0.00269946
0.00276237
0.00274939
2.49249e-05
-9.10619e-07
9.85151e-06
4.83124e-05
0.000113685
0.000207447
0.000330529
0.000483265
0.000665173
0.000874554
0.00110806
0.00136038
0.00162391
0.00188833
0.00214103
0.00236765
0.00255343
0.00268525
0.00275107
0.00273682
1.06671e-05
-1.90155e-05
-1.02185e-05
2.57623e-05
8.79015e-05
0.0001781
0.000297744
0.000447688
0.000628035
0.000837712
0.00107402
0.00133217
0.00160471
0.00188123
0.00214842
0.00239056
0.00259099
0.00273448
0.00280635
0.00278864
-3.87517e-05
-7.24362e-05
-6.65092e-05
-3.37246e-05
2.48206e-05
0.000111483
0.000228254
0.000376736
0.000557901
0.000771612
0.00101609
0.00128734
0.00157847
0.00187869
0.00217351
0.00244489
0.00267275
0.00283789
0.00292147
0.00290166
-0.000122691
-0.000160525
-0.000158077
-0.000129259
-7.50826e-05
7.41218e-06
0.000121018
0.000268335
0.00045152
0.000671755
0.00092862
0.00121941
0.00153832
0.00187426
0.00221119
0.00252776
0.00279871
0.00299841
0.00310154
0.003081
-0.000241683
-0.000284474
-0.000286381
-0.00026265
-0.000214178
-0.000137265
-2.81188e-05
0.000117136
0.000302207
0.000530064
0.000802211
0.00111792
0.00147389
0.00185871
0.00225485
0.00263682
0.00297191
0.00322448
0.00335851
0.0033385
-0.000396375
-0.000445272
-0.000452734
-0.000435725
-0.000395082
-0.000326251
-0.000224262
-8.36851e-05
0.000101151
0.000335567
0.000623587
0.00096698
0.00136895
0.00181663
0.00229214
0.0027655
0.00319392
0.00352645
0.00370921
0.00369228
-0.000587611
-0.000643965
-0.000658493
-0.000650418
-0.000620638
-0.0005637
-0.000473321
-0.000342268
-0.000162469
7.44412e-05
0.000375645
0.00074336
0.00120022
0.00172386
0.00230138
0.00289937
0.00346233
0.00391631
0.0041774
0.00417002
-0.000816458
-0.000881767
-0.000905118
-0.000908713
-0.000893766
-0.000853966
-0.000781689
-0.000667747
-0.00050128
-0.000269908
4.02626e-05
0.000446167
0.000937764
0.0015431
0.00224542
0.00300906
0.00376457
0.00440501
0.00479602
0.0048156
-0.00108424
-0.00116007
-0.00119405
-0.00121239
-0.00121704
-0.00120104
-0.00115556
-0.00106954
-0.000929419
-0.000719034
-0.000419649
-1.1209e-05
0.000522184
0.00121504
0.00206139
0.00303691
0.00406433
0.00499369
0.00560752
0.0057026
-0.0013928
-0.0014806
-0.00152667
-0.0015627
-0.00159216
-0.00160776
-0.00159979
-0.00155568
-0.00145949
-0.0012915
-0.00102758
-0.000640676
-0.00010866
0.000659867
0.00164804
0.00287297
0.00427189
0.00564885
0.0066556
0.00696061
-0.00174516
-0.00184587
-0.00190431
-0.00196007
-0.00201923
-0.00207479
-0.00211656
-0.00213103
-0.00210075
-0.00200335
-0.00180957
-0.00147913
-0.000951771
-0.000221206
0.000845409
0.00231074
0.00417543
0.00623177
0.00796209
0.0088308
-0.00214691
-0.00226015
-0.00232856
-0.00240365
-0.00249599
-0.00259941
-0.00270368
-0.00279506
-0.00285604
-0.00286444
-0.00279099
-0.00259478
-0.00221843
-0.00159197
-0.000590345
0.000972478
0.00327533
0.00626695
0.00936991
0.0116795
-0.00260927
-0.00273123
-0.00280148
-0.00289067
-0.00301661
-0.00317417
-0.00335285
-0.00353902
-0.00371662
-0.00386713
-0.00396789
-0.00398789
-0.00388085
-0.00357595
-0.00294832
-0.00176645
0.000487128
0.0043318
0.00960141
0.0150466
-0.0031565
-0.00327687
-0.00332882
-0.00341624
-0.0035704
-0.00378552
-0.00404845
-0.00434445
-0.00465946
-0.00498186
-0.00530309
-0.00561679
-0.00591746
-0.0062062
-0.00649543
-0.00665505
-0.00589926
-0.00241687
0.00480743
0.0151197
-0.00383121
-0.00391117
-0.00389541
-0.00395826
-0.00413508
-0.00441144
-0.00476721
-0.00518373
-0.00564747
-0.00615451
-0.00671588
-0.00736427
-0.00816989
-0.00929018
-0.0110729
-0.0138437
-0.0165684
-0.015643
-0.00836287
0.0073531
-0.00470549
-0.00476601
-0.00460042
-0.00454454
-0.00470178
-0.00503003
-0.00548221
-0.00602331
-0.00663329
-0.00731017
-0.00808214
-0.0090216
-0.0102968
-0.0122632
-0.0156784
-0.0214167
-0.0289512
-0.0312522
-0.0247534
-0.000522949
-0.00660133
-0.00576381
-0.0049499
-0.00482437
-0.00507122
-0.00552772
-0.00612115
-0.00680169
-0.00754942
-0.0083568
-0.00926186
-0.0103496
-0.0118825
-0.014345
-0.0187783
-0.0259811
-0.0370416
-0.0395687
-0.0286591
0.0185346
-0.00587711
-0.00776354
-0.0064925
-0.00587774
-0.00588979
-0.00630047
-0.00691724
-0.00763479
-0.00842509
-0.00925762
-0.0101784
-0.0112541
-0.0128707
-0.0154839
-0.0202596
-0.0269291
-0.034654
-0.0288503
0.00631043
0.083434
-0.0230288
-0.00827463
-0.00365365
-0.00319203
-0.00369525
-0.00438862
-0.00524479
-0.00617492
-0.00721607
-0.00823596
-0.0094219
-0.010766
-0.0128487
-0.0158939
-0.020129
-0.0232982
-0.0193805
0.00570464
0.072718
0.182825
)
;

boundaryField
{
    movingWall
    {
        type            zeroGradient;
    }
    fixedWalls
    {
        type            zeroGradient;
    }
    frontAndBack
    {
        type            empty;
    }
}


// ************************************************************************* //
