/*--------------------------------*- C++ -*----------------------------------*\
  =========                 |
  \\      /  F ield         | OpenFOAM: The Open Source CFD Toolbox
   \\    /   O peration     | Website:  https://openfoam.org
    \\  /    A nd           | Version:  10
     \\/     M anipulation  |
\*---------------------------------------------------------------------------*/
FoamFile
{
    format      ascii;
    class       surfaceScalarField;
    location    "4";
    object      phi;
}
// * * * * * * * * * * * * * * * * * * * * * * * * * * * * * * * * * * * * * //

dimensions      [0 3 -1 0 0 0 0];

internalField   nonuniform List<scalar> 
760
(
-9.02076e-06
9.02051e-06
-2.83988e-05
1.9378e-05
-5.00954e-05
2.16967e-05
-7.13573e-05
2.1262e-05
-9.1391e-05
2.00338e-05
-0.000109748
1.83565e-05
-0.000125988
1.62409e-05
-0.000139642
1.36541e-05
-0.000150206
1.05636e-05
-0.000157155
6.94887e-06
-0.000159969
2.81407e-06
-0.000158135
-1.83372e-06
-0.000151249
-6.8857e-06
-0.000139046
-1.22037e-05
-0.000121486
-1.75598e-05
-9.88477e-05
-2.2638e-05
-7.18645e-05
-2.69832e-05
-4.21997e-05
-2.96647e-05
-1.43721e-05
-2.78277e-05
-1.43721e-05
-2.01935e-05
2.92141e-05
-5.52586e-05
5.44433e-05
-9.3307e-05
5.97452e-05
-0.000130357
5.8312e-05
-0.000164955
5.46317e-05
-0.000196221
4.96227e-05
-0.000223373
4.33928e-05
-0.000245638
3.59196e-05
-0.000262246
2.71708e-05
-0.000272432
1.71359e-05
-0.000275496
5.87746e-06
-0.000270757
-6.57248e-06
-0.00025771
-1.9933e-05
-0.00023609
-3.38233e-05
-0.000205969
-4.76807e-05
-0.000167894
-6.07129e-05
-0.00012312
-7.17574e-05
-7.42906e-05
-7.8494e-05
-2.77573e-05
-7.4361e-05
-4.21295e-05
-2.39507e-05
5.31648e-05
-6.44972e-05
9.49899e-05
-0.000108098
0.000103346
-0.000150402
0.000100617
-0.000189833
9.40622e-05
-0.000225414
8.52038e-05
-0.000256281
7.42598e-05
-0.00028159
6.12285e-05
-0.000300503
4.60843e-05
-0.000312195
2.88277e-05
-0.000315872
9.55449e-06
-0.000310759
-1.16851e-05
-0.000296253
-3.44393e-05
-0.00027197
-5.81061e-05
-0.000237887
-8.17635e-05
-0.000194517
-0.000104083
-0.000143201
-0.000123074
-8.68851e-05
-0.00013481
-3.27682e-05
-0.000128478
-7.48977e-05
-2.5553e-05
7.87179e-05
-6.89773e-05
0.000138414
-0.000115606
0.000149974
-0.000160832
0.000145844
-0.000203057
0.000136287
-0.000241305
0.000123452
-0.000274706
0.000107661
-0.000302404
8.89262e-05
-0.000323528
6.72084e-05
-0.000337187
4.24867e-05
-0.000342492
1.486e-05
-0.000338497
-1.56807e-05
-0.000324364
-4.85723e-05
-0.000299437
-8.30327e-05
-0.000263404
-0.000117797
-0.000216544
-0.000150943
-0.000160136
-0.000179482
-9.74291e-05
-0.000197516
-3.67161e-05
-0.000189191
-0.000111614
-2.70977e-05
0.000105816
-7.33897e-05
0.000184706
-0.000123133
0.000199717
-0.000171447
0.000194157
-0.00021671
0.00018155
-0.000257968
0.00016471
-0.000294373
0.000144066
-0.000325073
0.000119626
-0.000349177
9.13116e-05
-0.000365724
5.90338e-05
-0.000373672
2.28087e-05
-0.000371882
-1.74713e-05
-0.000359116
-6.1338e-05
-0.000334279
-0.000107869
-0.00029655
-0.000155526
-0.000245748
-0.000201745
-0.000182948
-0.000242281
-0.000111797
-0.000268668
-4.21842e-05
-0.000258803
-0.000153798
-2.90616e-05
0.000134877
-7.89069e-05
0.000234551
-0.000132505
0.000253315
-0.000184648
0.0002463
-0.000233692
0.000230593
-0.00027872
0.000209738
-0.000318928
0.000184275
-0.000353499
0.000154198
-0.000381543
0.000119355
-0.000402038
7.95289e-05
-0.000413806
3.4577e-05
-0.000415443
-1.58343e-05
-0.000405174
-7.16074e-05
-0.000381266
-0.000131777
-0.000342082
-0.00019471
-0.000286612
-0.000257216
-0.00021542
-0.000313473
-0.000132556
-0.000351531
-5.02124e-05
-0.000341147
-0.00020401
-3.15405e-05
0.000166418
-8.57972e-05
0.000288808
-0.000144135
0.000311653
-0.000200948
0.000303113
-0.000254578
0.000284223
-0.000304171
0.000259332
-0.00034901
0.000229114
-0.000388359
0.000193546
-0.000421379
0.000152375
-0.000447039
0.000105189
-0.000464014
5.15516e-05
-0.000470771
-9.07647e-06
-0.000464696
-7.76823e-05
-0.00044326
-0.000153213
-0.000403564
-0.000234406
-0.00034314
-0.00031764
-0.000261396
-0.000395217
-0.000162557
-0.00045037
-6.20166e-05
-0.000441688
-0.000266027
-3.45813e-05
0.000200999
-9.41829e-05
0.00034841
-0.000158185
0.000375655
-0.000220504
0.000365432
-0.00027948
0.000343199
-0.000334371
0.000314223
-0.000384602
0.000279345
-0.000429597
0.000238541
-0.000468657
0.000191435
-0.000500821
0.000137353
-0.00052467
7.54002e-05
-0.000538923
5.17716e-06
-0.000539561
-7.70445e-05
-0.000523343
-0.000169431
-0.000485451
-0.000272298
-0.000420941
-0.00038215
-0.000326791
-0.000489367
-0.000206564
-0.000570598
-7.98324e-05
-0.00056842
-0.000345859
-3.82584e-05
0.000239257
-0.000104228
0.000414379
-0.000174848
0.000446274
-0.000243467
0.000434051
-0.000308456
0.000408188
-0.000369246
0.000375012
-0.00042549
0.00033559
-0.000476878
0.000289929
-0.000522993
0.00023755
-0.000563155
0.000177514
-0.000596168
0.000108413
-0.000619982
2.89909e-05
-0.000631442
-6.55843e-05
-0.000625082
-0.000175792
-0.000593704
-0.000303676
-0.000528421
-0.000447433
-0.00042143
-0.000596358
-0.000273375
-0.000718653
-0.000108332
-0.000733462
-0.000454191
-4.27124e-05
0.000281969
-0.00011622
0.000487887
-0.000194453
0.000524507
-0.000270099
0.000509697
-0.000341614
0.000479704
-0.000408689
0.000442087
-0.000471318
0.000398219
-0.000529585
0.000348196
-0.000583528
0.000291493
-0.000632953
0.00022694
-0.000677169
0.000152629
-0.000714209
6.60305e-05
-0.000741651
-3.81414e-05
-0.00075223
-0.000165213
-0.000736003
-0.000319903
-0.000678201
-0.000505236
-0.000562204
-0.000712355
-0.000380355
-0.000900502
-0.000158312
-0.000955505
-0.000612504
-4.82031e-05
0.000330172
-0.000130665
0.000570349
-0.000217568
0.00061141
-0.000300856
0.000592985
-0.000379175
0.000558023
-0.000452607
0.000515518
-0.000521609
0.000467221
-0.000586808
0.000413395
-0.000648886
0.000353571
-0.000708438
0.000286493
-0.00076567
0.000209861
-0.000819637
0.000119997
-0.000869873
1.2095e-05
-0.000907534
-0.000127552
-0.000921313
-0.000306124
-0.000888816
-0.000537733
-0.000778601
-0.000822569
-0.00056303
-0.00111607
-0.000255941
-0.00126259
-0.000868445
-5.52042e-05
0.000385377
-0.000148443
0.000663588
-0.000245156
0.000708123
-0.000336515
0.000684344
-0.00042157
0.000643077
-0.00050098
0.000594929
-0.000575815
0.000542055
-0.000647364
0.000484944
-0.000717132
0.000423339
-0.00078683
0.00035619
-0.000858299
0.000281329
-0.000933065
0.000194763
-0.00101082
8.98469e-05
-0.00109013
-4.82375e-05
-0.00115759
-0.000238662
-0.00118504
-0.000510284
-0.00111943
-0.000888182
-0.000890086
-0.00134542
-0.000459292
-0.00169339
-0.00132774
-6.45793e-05
0.000449956
-0.000171077
0.000770085
-0.000278814
0.00081586
-0.000378336
0.000783866
-0.000469537
0.000734279
-0.000553958
0.00067935
-0.000633409
0.000621506
-0.000709897
0.000561432
-0.000785792
0.000499233
-0.000864086
0.000434484
-0.000948665
0.000365908
-0.00104445
0.000290545
-0.0011564
0.000201797
-0.00129155
8.69136e-05
-0.00144412
-8.60892e-05
-0.00158802
-0.000366384
-0.00164239
-0.000833817
-0.00145386
-0.00153394
-0.00085384
-0.00229341
-0.00218158
-7.79368e-05
0.000527893
-0.000201211
0.000893359
-0.000321128
0.000935777
-0.000428244
0.000890983
-0.000524222
0.000830257
-0.000611938
0.000767065
-0.000694032
0.000703601
-0.000773112
0.000640512
-0.000852209
0.00057833
-0.00093542
0.000517695
-0.0010288
0.000459292
-0.00114158
0.000403324
-0.00128749
0.00034771
-0.00148383
0.000283249
-0.00174989
0.00017997
-0.00206942
-4.68502e-05
-0.00232378
-0.000579459
-0.00222278
-0.00163494
-0.00139628
-0.00311991
-0.00357786
-9.81971e-05
0.00062609
-0.00024356
0.00103872
-0.000376491
0.00106871
-0.000489118
0.00100361
-0.000587181
0.00092832
-0.000675547
0.000855432
-0.000757548
0.000785601
-0.00083595
0.000718914
-0.000913829
0.000656209
-0.000995548
0.000599414
-0.00108831
0.00055205
-0.00120478
0.000519796
-0.00136698
0.000509911
-0.00160964
0.000525912
-0.00197223
0.000542557
-0.00244818
0.000429096
-0.00286282
-0.00016481
-0.00278789
-0.00170987
-0.00173796
-0.00416984
-0.00531582
-0.000132308
0.000758398
-0.000306136
0.00121255
-0.00044935
0.00121192
-0.000563309
0.00111757
-0.000659519
0.00102453
-0.000744961
0.000940873
-0.00082319
0.000863829
-0.00089634
0.000792065
-0.000966525
0.000726394
-0.00103677
0.000669662
-0.00111282
0.000628102
-0.00120616
0.000613127
-0.00134047
0.000644227
-0.00155538
0.000740818
-0.00189476
0.000881943
-0.00234829
0.000882626
-0.00270702
0.000193921
-0.0025856
-0.0018313
-0.00160501
-0.00515042
-0.00692083
-0.000192478
0.000950876
-0.000415966
0.00143604
-0.000561097
0.00135705
-0.000659351
0.00121582
-0.000742138
0.00110732
-0.000816029
0.00101476
-0.000881021
0.000928822
-0.000936894
0.000847937
-0.000984416
0.000773916
-0.00102397
0.000709213
-0.00105701
0.000661144
-0.00108571
0.000641827
-0.00112047
0.000678992
-0.00117945
0.000799793
-0.00128901
0.000991502
-0.00143265
0.00102627
-0.00161684
0.000378113
-0.00153651
-0.00191163
-0.00112811
-0.00555883
-0.00804894
-0.000180979
0.00113186
-0.0004808
0.00173586
-0.000664846
0.0015411
-0.000767291
0.00131827
-0.000816052
0.00115608
-0.00083153
0.00103024
-0.000823231
0.000920523
-0.000797146
0.000821852
-0.000759542
0.000736311
-0.00071016
0.000659832
-0.000648713
0.000599698
-0.000564872
0.000557987
-0.000450016
0.000564136
-0.000283615
0.000633392
-8.16552e-05
0.000789543
0.000103778
0.000840836
0.000238084
0.000243807
4.33111e-05
-0.00171686
-7.95319e-06
-0.00550756
-0.00805689
-0.00152814
0.00266
-0.00143228
0.00164
-0.000995039
0.00110386
-0.000582123
0.000905351
-0.000207074
0.000781028
0.000146539
0.00067663
0.000477454
0.000589608
0.000785877
0.000513429
0.00106902
0.00045317
0.00133068
0.000398171
0.00157302
0.000357357
0.00180597
0.000325035
0.00204119
0.000328922
0.00231984
0.00035474
0.00271485
0.000394528
0.00324448
0.000311206
0.00352347
-3.51795e-05
0.00337007
-0.00156346
0.00192232
-0.00405981
-0.00613458
0.00266
0.0043
0.00540385
0.0063092
0.00709023
0.00776686
0.00835647
0.0088699
0.00932307
0.00972124
0.0100786
0.0104036
0.0107326
0.0110873
0.0114818
0.011793
0.0117578
0.0101944
0.00613458
)
;

boundaryField
{
    movingWall
    {
        type            calculated;
        value           uniform 0;
    }
    fixedWalls
    {
        type            calculated;
        value           uniform 0;
    }
    frontAndBack
    {
        type            empty;
        value           nonuniform List<scalar> 0();
    }
}


// ************************************************************************* //
