/*--------------------------------*- C++ -*----------------------------------*\
  =========                 |
  \\      /  F ield         | OpenFOAM: The Open Source CFD Toolbox
   \\    /   O peration     | Website:  https://openfoam.org
    \\  /    A nd           | Version:  10
     \\/     M anipulation  |
\*---------------------------------------------------------------------------*/
FoamFile
{
    format      ascii;
    class       volVectorField;
    location    "4";
    object      U;
}
// * * * * * * * * * * * * * * * * * * * * * * * * * * * * * * * * * * * * * //

dimensions      [0 1 -1 0 0 0 0];

internalField   nonuniform List<vector> 
400
(
(-0.000165976 0.000161154 0)
(-0.000862164 0.000395175 0)
(-0.00195329 0.000450643 0)
(-0.00304746 0.000444072 0)
(-0.00408492 0.000421392 0)
(-0.00504841 0.000390065 0)
(-0.00591706 0.000349761 0)
(-0.006668 0.000299283 0)
(-0.00727679 0.000237508 0)
(-0.00771763 0.000163644 0)
(-0.0079643 7.73858e-05 0)
(-0.00799072 -2.09865e-05 0)
(-0.0077736 -0.000129916 0)
(-0.00729588 -0.000245922 0)
(-0.00654965 -0.000363921 0)
(-0.00554066 -0.000476797 0)
(-0.0042921 -0.000574428 0)
(-0.00284778 -0.000635803 0)
(-0.00133171 -0.000594175 0)
(-0.000289657 -0.000289326 0)
(-0.000418477 0.000871911 0)
(-0.00177922 0.00172405 0)
(-0.0037035 0.00191008 0)
(-0.00561606 0.00186897 0)
(-0.00741696 0.00175685 0)
(-0.00907101 0.00160358 0)
(-0.0105386 0.00141136 0)
(-0.0117805 0.00117837 0)
(-0.0127581 0.000902665 0)
(-0.0134331 0.00058314 0)
(-0.0137684 0.000220273 0)
(-0.0137292 -0.000182815 0)
(-0.0132853 -0.000618661 0)
(-0.012417 -0.00107448 0)
(-0.0111189 -0.00153118 0)
(-0.00940615 -0.00196216 0)
(-0.00732044 -0.00232889 0)
(-0.00493287 -0.00255366 0)
(-0.00243171 -0.00240945 0)
(-0.000593811 -0.00131634 0)
(-0.000501322 0.00203264 0)
(-0.00209178 0.00369098 0)
(-0.0043052 0.00402997 0)
(-0.00649252 0.00392813 0)
(-0.00854684 0.00367589 0)
(-0.0104307 0.0033336 0)
(-0.0121001 0.00290928 0)
(-0.0135118 0.0024023 0)
(-0.0146239 0.00181123 0)
(-0.0153947 0.00113579 0)
(-0.0157837 0.00037839 0)
(-0.0157511 -0.000453701 0)
(-0.0152619 -0.00134569 0)
(-0.0142908 -0.00227283 0)
(-0.0128269 -0.00319788 0)
(-0.0108819 -0.00406837 0)
(-0.00849835 -0.00480678 0)
(-0.00575258 -0.00525977 0)
(-0.00285643 -0.00500024 0)
(-0.000705133 -0.002885 0)
(-0.000533065 0.00328345 0)
(-0.00223431 0.00580967 0)
(-0.00460479 0.00630538 0)
(-0.00694338 0.00613492 0)
(-0.00914083 0.00573369 0)
(-0.0111614 0.005193 0)
(-0.012961 0.00452636 0)
(-0.0144962 0.00373402 0)
(-0.0157236 0.00281456 0)
(-0.0165996 0.00176759 0)
(-0.0170794 0.000596106 0)
(-0.0171169 -0.000690408 0)
(-0.0166666 -0.00207284 0)
(-0.0156905 -0.00351543 0)
(-0.0141633 -0.0049629 0)
(-0.0120831 -0.00633447 0)
(-0.00948402 -0.00750737 0)
(-0.00644424 -0.00824009 0)
(-0.00320443 -0.00787531 0)
(-0.000789448 -0.00462739 0)
(-0.000563228 0.00459682 0)
(-0.00237281 0.00804687 0)
(-0.00490239 0.00870831 0)
(-0.0073987 0.00846716 0)
(-0.00974938 0.00791485 0)
(-0.0119212 0.00717481 0)
(-0.0138712 0.00626574 0)
(-0.0155566 0.00518814 0)
(-0.0169341 0.00393928 0)
(-0.0179576 0.00251663 0)
(-0.0185771 0.00092077 0)
(-0.018738 -0.000840446 0)
(-0.0183799 -0.00274795 0)
(-0.0174435 -0.00475851 0)
(-0.0158793 -0.00680063 0)
(-0.0136604 -0.0087625 0)
(-0.0108023 -0.0104657 0)
(-0.00738228 -0.0115577 0)
(-0.00368339 -0.0111041 0)
(-0.000907418 -0.00658413 0)
(-0.000602415 0.00599599 0)
(-0.00254729 0.0104417 0)
(-0.00527345 0.0112828 0)
(-0.00796517 0.0109701 0)
(-0.0105061 0.0102647 0)
(-0.0128665 0.00932472 0)
(-0.0150056 0.00817417 0)
(-0.0168828 0.00681311 0)
(-0.0184559 0.00523597 0)
(-0.0196776 0.00343535 0)
(-0.0204931 0.0014055 0)
(-0.0208381 -0.000852677 0)
(-0.0206323 -0.00332912 0)
(-0.0197867 -0.00597843 0)
(-0.018215 -0.00871819 0)
(-0.0158476 -0.0114043 0)
(-0.0126636 -0.0137881 0)
(-0.00872843 -0.015369 0)
(-0.00438234 -0.0148608 0)
(-0.00108242 -0.00887061 0)
(-0.000652433 0.00750591 0)
(-0.00276638 0.0130353 0)
(-0.00573538 0.0140722 0)
(-0.0086664 0.0136858 0)
(-0.0114387 0.0128243 0)
(-0.0140273 0.0116837 0)
(-0.0163958 0.010294 0)
(-0.0185078 0.00865457 0)
(-0.0203247 0.00675534 0)
(-0.0218005 0.00458086 0)
(-0.0228771 0.00211414 0)
(-0.023484 -0.000657033 0)
(-0.0235167 -0.00374827 0)
(-0.0228454 -0.00711911 0)
(-0.0213321 -0.0106898 0)
(-0.0188373 -0.0142882 0)
(-0.0152697 -0.0175793 0)
(-0.010656 -0.0198591 0)
(-0.00540416 -0.019372 0)
(-0.00134207 -0.0116411 0)
(-0.000714236 0.00915324 0)
(-0.00303418 0.0158721 0)
(-0.00629573 0.0171213 0)
(-0.00951085 0.0166562 0)
(-0.0125541 0.0156328 0)
(-0.0154078 0.01429 0)
(-0.0180423 0.0126652 0)
(-0.0204291 0.0107571 0)
(-0.0225375 0.00854995 0)
(-0.0243268 0.00601687 0)
(-0.0257393 0.00312208 0)
(-0.0267093 -0.000175476 0)
(-0.0271044 -0.00390305 0)
(-0.0267422 -0.00807728 0)
(-0.0254195 -0.0126387 0)
(-0.0228851 -0.0174035 0)
(-0.0189176 -0.0219399 0)
(-0.0134433 -0.0252635 0)
(-0.00693096 -0.0249597 0)
(-0.00173898 -0.0151282 0)
(-0.000789633 0.0109676 0)
(-0.00335673 0.0190008 0)
(-0.00696409 0.0204772 0)
(-0.0105079 0.0199222 0)
(-0.0138581 0.0187263 0)
(-0.0170078 0.0171776 0)
(-0.019938 0.015323 0)
(-0.0226328 0.0131617 0)
(-0.0250754 0.0106723 0)
(-0.0272396 0.00781435 0)
(-0.0290816 0.00452751 0)
(-0.0305226 0.000733288 0)
(-0.0314349 -0.00363207 0)
(-0.0316042 -0.00867472 0)
(-0.0307136 -0.0143981 0)
(-0.0283538 -0.0206556 0)
(-0.024076 -0.0269331 0)
(-0.017579 -0.0318725 0)
(-0.00932569 -0.0320997 0)
(-0.0023875 -0.0197191 0)
(-0.000882288 0.012984 0)
(-0.00374504 0.0224759 0)
(-0.00775696 0.0241888 0)
(-0.0116733 0.0235224 0)
(-0.0153606 0.0221352 0)
(-0.0188278 0.020372 0)
(-0.0220713 0.018293 0)
(-0.0250938 0.0159002 0)
(-0.0279003 0.0131682 0)
(-0.0304889 0.0100435 0)
(-0.0328399 0.00644041 0)
(-0.0348914 0.00223991 0)
(-0.0365408 -0.00270965 0)
(-0.0375492 -0.00862812 0)
(-0.0374919 -0.0156505 0)
(-0.0357489 -0.023777 0)
(-0.0314963 -0.032495 0)
(-0.0239626 -0.0399979 0)
(-0.0133795 -0.0415102 0)
(-0.00356153 -0.0261299 0)
(-0.00099928 0.0152467 0)
(-0.00421907 0.0263615 0)
(-0.00870292 0.0283074 0)
(-0.0130345 0.0274911 0)
(-0.0170798 0.0258801 0)
(-0.0208715 0.0238859 0)
(-0.0244281 0.0215855 0)
(-0.0277776 0.0189874 0)
(-0.0309545 0.016066 0)
(-0.033993 0.0127592 0)
(-0.0369155 0.00895846 0)
(-0.0397102 0.00449283 0)
(-0.0423524 -0.000895581 0)
(-0.0446197 -0.00751999 0)
(-0.0460253 -0.0158358 0)
(-0.0457375 -0.0261598 0)
(-0.0423773 -0.0382113 0)
(-0.0342952 -0.0498106 0)
(-0.0208913 -0.0542948 0)
(-0.00593816 -0.0358625 0)
(-0.001154 0.0178183 0)
(-0.00481438 0.0307379 0)
(-0.00985089 0.0328888 0)
(-0.0146372 0.0318555 0)
(-0.0190473 0.0299677 0)
(-0.0231501 0.0277128 0)
(-0.0269949 0.025188 0)
(-0.030641 0.0224116 0)
(-0.0341598 0.0193643 0)
(-0.0376331 0.0159862 0)
(-0.0411514 0.01216 0)
(-0.0448049 0.00767981 0)
(-0.0486381 0.0022029 0)
(-0.0526298 -0.00474998 0)
(-0.0564433 -0.0140312 0)
(-0.0590778 -0.0265606 0)
(-0.0585156 -0.042805 0)
(-0.0516468 -0.0608017 0)
(-0.0355928 -0.0719724 0)
(-0.0109679 -0.052263 0)
(-0.00137176 0.0207941 0)
(-0.00559421 0.0357119 0)
(-0.0112835 0.0379924 0)
(-0.0165563 0.0366308 0)
(-0.0213148 0.0343836 0)
(-0.0256867 0.0318209 0)
(-0.0297628 0.0290582 0)
(-0.033638 0.0261249 0)
(-0.0374216 0.0230158 0)
(-0.0412469 0.0196905 0)
(-0.0452851 0.0160543 0)
(-0.0497555 0.0119157 0)
(-0.0549199 0.00690972 0)
(-0.0611113 0.000351131 0)
(-0.0684329 -0.00888969 0)
(-0.0761968 -0.0227406 0)
(-0.0818965 -0.0433577 0)
(-0.0800699 -0.0706695 0)
(-0.062473 -0.0954427 0)
(-0.0201181 -0.0812503 0)
(-0.00170129 0.024334 0)
(-0.00667218 0.0414443 0)
(-0.0131391 0.0436898 0)
(-0.0189093 0.0418118 0)
(-0.0239607 0.0390823 0)
(-0.0285204 0.0361451 0)
(-0.0327338 0.033118 0)
(-0.0367292 0.0300354 0)
(-0.0406448 0.0269121 0)
(-0.0446538 0.0237491 0)
(-0.0490021 0.0205203 0)
(-0.0540605 0.0171319 0)
(-0.0603925 0.0133259 0)
(-0.0688159 0.00847047 0)
(-0.0804325 0.00118775 0)
(-0.095713 -0.0116582 0)
(-0.1118 -0.0355866 0)
(-0.118839 -0.0758725 0)
(-0.0992979 -0.125608 0)
(-0.0290372 -0.130711 0)
(-0.00223423 0.0286847 0)
(-0.00825104 0.0480654 0)
(-0.0156593 0.049938 0)
(-0.0218845 0.0473032 0)
(-0.0270959 0.0439581 0)
(-0.0317053 0.0405772 0)
(-0.0359213 0.0372515 0)
(-0.0398885 0.034006 0)
(-0.0437465 0.0308756 0)
(-0.0476708 0.0279214 0)
(-0.0519321 0.0252386 0)
(-0.0569912 0.0229467 0)
(-0.063661 0.0211304 0)
(-0.0733793 0.0195828 0)
(-0.0885063 0.0169363 0)
(-0.11117 0.00824869 0)
(-0.137415 -0.0184958 0)
(-0.150033 -0.0795673 0)
(-0.125186 -0.172781 0)
(-0.0240465 -0.212526 0)
(-0.00320092 0.0342849 0)
(-0.010737 0.0565307 0)
(-0.0191735 0.0574234 0)
(-0.025658 0.053238 0)
(-0.0308083 0.0489282 0)
(-0.0352747 0.0449848 0)
(-0.0393149 0.0413087 0)
(-0.0430529 0.0378509 0)
(-0.0465849 0.0346483 0)
(-0.050026 0.0318195 0)
(-0.0535677 0.0296096 0)
(-0.0575776 0.0284384 0)
(-0.0628064 0.0289624 0)
(-0.0708263 0.0317214 0)
(-0.0848444 0.0354841 0)
(-0.108247 0.032146 0)
(-0.134688 0.000289484 0)
(-0.14278 -0.0935851 0)
(-0.120149 -0.245064 0)
(-0.00365741 -0.326471 0)
(-0.00495111 0.044273 0)
(-0.0153803 0.0642409 0)
(-0.0248431 0.0618196 0)
(-0.0309564 0.0573231 0)
(-0.0353202 0.0529578 0)
(-0.0391687 0.0488519 0)
(-0.0425921 0.0449326 0)
(-0.045563 0.0411996 0)
(-0.0480953 0.0377648 0)
(-0.0502112 0.0347907 0)
(-0.0519335 0.0326499 0)
(-0.0532727 0.0319967 0)
(-0.054382 0.034085 0)
(-0.0559065 0.040121 0)
(-0.0603814 0.0488498 0)
(-0.0713633 0.0488694 0)
(-0.0866814 0.0132404 0)
(-0.0857879 -0.109156 0)
(-0.0886222 -0.307008 0)
(0.0202588 -0.42599 0)
(-0.00107202 0.0417516 0)
(-0.0149507 0.0839114 0)
(-0.030876 0.0800612 0)
(-0.0372268 0.068482 0)
(-0.0403258 0.0602435 0)
(-0.0416701 0.0539707 0)
(-0.0416613 0.0484971 0)
(-0.0406639 0.0435688 0)
(-0.0389933 0.0392291 0)
(-0.0367282 0.0354737 0)
(-0.0339195 0.0326482 0)
(-0.0300572 0.0312642 0)
(-0.0248661 0.0328325 0)
(-0.0172596 0.0385443 0)
(-0.00876847 0.0479524 0)
(0.00179499 0.0489929 0)
(0.00284611 0.0159213 0)
(0.0168514 -0.110112 0)
(-0.0230978 -0.317103 0)
(0.0605522 -0.442488 0)
(-0.0947868 0.100398 0)
(-0.0718598 0.0795932 0)
(-0.059996 0.0583121 0)
(-0.039459 0.0503843 0)
(-0.0200587 0.0449186 0)
(-0.00149034 0.0400098 0)
(0.0157503 0.0355544 0)
(0.0320273 0.0315373 0)
(0.0465754 0.0282507 0)
(0.060671 0.0251843 0)
(0.0727866 0.0229643 0)
(0.085896 0.0211711 0)
(0.0966816 0.0216285 0)
(0.111387 0.0242506 0)
(0.120668 0.0298832 0)
(0.149017 0.0308543 0)
(0.140486 0.00314921 0)
(0.174406 -0.0774121 0)
(0.128894 -0.231692 0)
(0.160673 -0.343106 0)
(0.137005 0.110464 0)
(0.173682 0.0895132 0)
(0.235847 0.0678529 0)
(0.291542 0.0537112 0)
(0.335832 0.0443964 0)
(0.373076 0.0374235 0)
(0.403483 0.0320443 0)
(0.4324 0.027459 0)
(0.454212 0.0237395 0)
(0.478901 0.0205043 0)
(0.493206 0.0177057 0)
(0.517016 0.0153742 0)
(0.524105 0.0138136 0)
(0.55126 0.0122079 0)
(0.549196 0.0129931 0)
(0.578607 0.0100179 0)
(0.554489 0.00624097 0)
(0.55606 -0.0183774 0)
(0.454393 -0.0511555 0)
(0.343493 -0.09939 0)
)
;

boundaryField
{
    movingWall
    {
        type            fixedValue;
        value           uniform (1 0 0);
    }
    fixedWalls
    {
        type            noSlip;
    }
    frontAndBack
    {
        type            empty;
    }
}


// ************************************************************************* //
