/*--------------------------------*- C++ -*----------------------------------*\
  =========                 |
  \\      /  F ield         | OpenFOAM: The Open Source CFD Toolbox
   \\    /   O peration     | Website:  https://openfoam.org
    \\  /    A nd           | Version:  10
     \\/     M anipulation  |
\*---------------------------------------------------------------------------*/
FoamFile
{
    format      ascii;
    class       surfaceScalarField;
    location    "1.525";
    object      phi;
}
// * * * * * * * * * * * * * * * * * * * * * * * * * * * * * * * * * * * * * //

dimensions      [0 3 -1 0 0 0 0];

internalField   nonuniform List<scalar> 
928
(
0.0979542
0.00204585
0.103283
-0.00532929
0.107755
-0.00447159
-0.00902993
0.116785
0.0963691
0.00567676
0.106915
-0.0158754
0.105803
-0.00335934
-0.0185682
0.115341
0.0959079
0.00976887
0.109684
-0.0296515
0.106797
-0.000472399
-0.0377781
0.126007
0.099482
0.0102869
0.0918683
-0.0220377
0.0936432
-0.00224732
0.146096
-0.0902307
0.112037
0.0047481
-0.0164457
0.128483
0.112717
0.00737271
-0.041573
0.137844
0.132038
0.00134127
-0.0464491
0.136914
0.147437
0.100988
0.127911
0.000571329
0.128275
-0.000364105
0.128931
-0.000655579
-0.00128484
0.130216
0.13893
-0.000514567
0.137853
0.000713095
0.137874
-0.000676587
-0.00263745
0.139226
0.141501
-0.00510119
0.145136
-0.00292227
0.146719
-0.00225923
0.00144031
0.142641
0.102964
-0.00707721
0.0873477
0.012694
0.0956617
-0.0105733
0.0847487
0.0123533
0.131287
-0.00107163
0.131522
-0.000234395
0.130102
0.00141961
0.128645
0.00145674
0.127794
0.000851802
0.126419
0.00137501
0.125157
0.00126139
0.123769
0.00138797
0.12326
0.000509698
0.122634
0.000625465
0.12262
1.45744e-05
0.122663
-4.38656e-05
0.12237
0.000293177
0.121935
0.000435691
0.120905
0.00102965
0.120086
0.000818933
0.118768
0.0013176
0.117801
0.000967126
0.116571
0.00123064
0.11563
0.000940922
0.115015
0.000614669
0.1145
0.000514904
0.114548
-4.83476e-05
0.114305
0.000243084
0.114442
-0.000136954
0.1141
0.000342577
0.113718
0.000381899
0.112768
0.000949892
0.111288
0.00147985
0.109568
0.00172023
0.10709
0.00247782
0.10507
0.00202038
0.102729
0.00234041
0.101464
0.00126517
0.100491
0.000973508
0.100376
0.000114301
0.101025
-0.000648668
0.101518
-0.000493421
0.102565
-0.00104642
0.000161968
0.138684
-0.000528907
0.137866
0.000582725
0.137305
0.00198117
0.13743
0.00133151
0.136711
0.00157052
0.134831
0.00325496
0.133658
0.00243476
0.132564
0.00248223
0.132225
0.000848698
0.131916
0.000934257
0.132159
-0.000228792
0.132487
-0.000371682
0.132592
0.000188234
0.132875
0.000152412
0.132298
0.00160689
0.132102
0.00101558
0.131289
0.00213
0.130737
0.00151931
0.129815
0.00215241
0.12899
0.00176651
0.128226
0.00137798
0.127373
0.00136771
0.127483
-0.000157973
0.127177
0.000549458
0.127735
-0.000695073
0.12781
0.000267358
0.127994
0.000198135
0.127809
0.00113485
0.126744
0.0025452
0.125958
0.00250559
0.124194
0.00424239
0.12295
0.00326352
0.12086
0.00443101
0.119275
0.00284987
0.118096
0.00215239
0.117291
0.000919427
0.117754
-0.00111168
0.118066
-0.000805503
0.119408
-0.0023885
-0.000811747
0.138927
0.00318567
0.138477
0.00103211
0.140165
0.000293354
0.141028
0.000468838
0.138859
0.00373954
0.138114
0.00399993
0.137075
0.00347392
0.1361
0.0034565
0.135339
0.00161056
0.134917
0.00135571
0.134869
-0.000180843
0.13523
-0.00073255
0.135833
-0.000415107
0.136173
-0.000187033
0.136132
0.0016477
0.136104
0.00104392
0.135373
0.00286059
0.134646
0.00224617
0.133446
0.00335245
0.132237
0.00297565
0.131124
0.00249057
0.130074
0.00241817
0.128922
0.000994242
0.128268
0.00120354
0.127722
-0.00014911
0.127622
0.000366694
0.127728
9.22607e-05
0.128054
0.000809186
0.127945
0.0026544
0.127694
0.00275671
0.126307
0.00562864
0.12452
0.00505052
0.122719
0.00623242
0.120847
0.00472206
0.119572
0.0034271
0.118344
0.0021474
0.118236
-0.00100323
0.117819
-0.000389243
0.118855
-0.00342445
-0.00146159
0.0853544
0.00257999
0.081534
0.00485248
0.0891468
-0.00731938
0.0879782
0.00163745
0.0838543
0.00786345
0.0891152
-0.00126097
0.089196
0.0033931
0.0918349
0.000817619
0.0946363
-0.00119083
0.0957055
0.000286479
0.0987455
-0.00322086
0.101198
-0.00318481
0.103633
-0.00285048
0.106102
-0.00265555
0.109236
-0.00148685
0.110786
-0.00050575
0.113117
0.000529914
0.113937
0.00142543
0.114402
0.00288791
0.113395
0.00398287
0.111395
0.00449064
0.10869
0.00512285
0.105506
0.00417789
0.103301
0.00340876
0.101334
0.00181826
0.101068
0.000631871
0.101522
-0.000361371
0.103117
-0.000785637
0.105853
-8.18129e-05
0.108387
0.000222697
0.111673
0.00234316
0.113427
0.00329617
0.114965
0.00469443
0.114051
0.00563595
0.111862
0.00561584
0.109286
0.00472362
0.105355
0.00292834
0.103138
0.00182769
0.101291
-0.001578
-0.00170219
0.111086
-0.000799039
0.089403
-0.000354801
0.0897132
-0.00255758
-0.000517534
0.108244
-0.00904314
0.0876506
0.0202387
0.0840302
0.00106279
0.0835127
-0.0189596
0.0118824
-0.039683
0.0334174
-0.0177274
-0.0325288
-0.0121363
0.00676227
-0.00903127
0.0209137
0.0158368
0.00854937
-0.00677964
-0.00991244
-0.0123496
-0.00656641
-0.0164586
0.0258008
-0.0175533
0.00594717
0.00181202
-0.0266847
-0.00134949
0.00479896
-0.00638957
0.0129035
-0.00129799
-0.00635255
0.00458226
-0.00248715
0.00949768
-0.00409779
0.0121121
-0.00380529
0.0151364
-0.00273775
0.0156393
-0.0037238
0.0167258
-0.00427135
0.0186766
-0.00480123
0.0201442
-0.00412311
0.0214733
-0.00281601
0.0225454
-0.00157785
0.0231836
-0.000108225
0.0239444
0.000664615
0.0243237
0.00250856
0.024631
0.00367559
0.0254138
0.00370782
0.0261424
0.00439425
0.0270932
0.0032271
0.0288282
0.00167381
0.0306399
6.47809e-06
0.0327649
-0.0014931
0.0357124
-0.00330891
0.0385033
-0.00357649
0.040978
-0.00255655
0.0432787
-0.00207801
0.0449692
0.000652699
0.0453667
0.00289866
0.0456325
0.00442863
0.0454256
0.00584284
0.0447176
0.00632389
0.0453586
0.00408262
0.0462154
0.00207151
0.047471
0.000572128
0.0503987
-0.00450577
-0.00388556
-0.000429451
0.0138807
0.00941181
-0.0038941
-0.00606833
-0.0112045
-0.00562742
0.00435804
0.0128543
-0.00557818
0.0143772
-0.00787544
0.0169893
-0.00509922
0.0179168
-0.00502529
0.0165262
-0.00241468
0.0176706
-0.0038822
0.0158199
-0.0018731
0.0139495
-0.00240094
0.0118424
-0.00269409
0.0102661
-0.00254686
0.00954346
-0.00209337
0.00948634
-0.00152073
0.00991491
-0.000536796
0.0103986
0.000180945
0.011777
0.00113012
0.0138374
0.0016152
0.0160605
0.00148476
0.0187378
0.00171697
0.0215497
0.000415171
0.0236014
-0.000377944
0.0254618
-0.00185387
0.0271884
-0.00321967
0.0281711
-0.00429162
0.0291253
-0.00453074
0.0304769
-0.00390813
0.0316246
-0.00322566
0.0331192
-0.000841989
0.0356336
0.000384259
0.0378341
0.00222819
0.0405613
0.00311561
0.0441673
0.00271794
0.0465022
0.00174764
0.0487685
-0.000194736
0.0511825
-0.00184193
0.0510804
-0.00440366
-0.00370398
0.100891
-0.00993439
0.0953132
0.0258168
0.0958765
0.00049947
0.0340277
0.145362
0.0963201
-0.00625447
0.107112
0.0150251
0.104466
0.00314542
0.0167365
0.121757
0.0962595
-0.00251392
0.105848
0.00543673
0.104522
0.00447133
0.00863375
0.112625
0.0974861
0.102923
0.107394
0.116028
0.14641
-0.00104823
0.0452719
0.101138
0.126742
-0.00603343
0.0413038
0.13071
0.111066
-0.00447462
0.0171673
0.135202
0.111553
0.128721
0.109937
0.012115
0.10879
0.00969587
0.101392
-0.00251439
-0.00489022
0.0997158
0.139762
0.00306289
0.145652
0.00380636
0.140346
0.00279193
-0.000547244
0.136003
0.137165
0.00109984
0.139279
0.00169273
0.140269
0.00180174
0.000619507
0.139102
0.12982
0.131513
0.133315
0.133934
0.113142
0.0004543
0.110758
-0.00150977
0.106527
-0.00697329
0.115374
-0.0044889
0.115447
-0.00565181
0.114283
-0.00671122
0.115594
-0.0064101
0.115814
-0.00524568
0.117339
-0.00393973
0.115534
-0.00207641
0.114725
-0.00106445
0.111521
0.000803137
0.107474
0.00135251
0.102736
0.00219186
0.0980203
0.00262185
0.0933777
0.0031219
0.0893279
0.00351295
0.0863551
0.00315374
0.0844975
0.0029878
0.0841298
0.00198286
0.0847376
0.000876996
0.0861793
0.000275274
0.0884047
-0.00181025
0.0900621
-0.00203536
0.0920426
-0.00383441
0.092089
-0.00326608
0.0915359
-0.00373848
0.0900898
-0.0030846
0.0880695
-0.00188786
0.0866555
-0.00181168
0.0856894
0.000124123
0.0865962
-0.000522565
0.0878527
0.000971654
0.0914211
-0.000452734
0.0952979
-0.0011589
0.0994359
-0.00239031
0.103751
-0.00451031
0.10598
-0.00407039
0.107014
-0.00543748
-0.00362671
0.137391
-0.000933962
0.137278
-0.00139707
0.132675
-0.00236985
0.132613
-0.00442772
0.13161
-0.00464786
0.128897
-0.00399835
0.126391
-0.00390446
0.12388
-0.0027351
0.123252
-0.00331096
0.122706
-0.00153113
0.122618
-0.000975816
0.122331
0.0010895
0.12198
0.00170366
0.122525
0.00164739
0.122832
0.00231498
0.124079
0.00187497
0.124522
0.00306938
0.125573
0.0021032
0.126475
0.00208564
0.12737
0.00108744
0.128536
-0.000288579
0.129436
-0.000625174
0.130329
-0.00270346
0.130606
-0.00231215
0.130834
-0.00406237
0.130812
-0.00324351
0.130755
-0.00368208
0.130683
-0.00301278
0.130544
-0.00174885
0.130592
-0.00185912
0.130498
0.000218328
0.130859
-0.000883856
0.131442
0.000388907
0.132446
-0.0014571
0.133481
-0.00219339
0.134045
-0.00295428
0.133979
-0.00444454
0.133525
-0.00361691
0.132686
-0.00459791
-0.00277829
0.138347
-0.000178255
0.138002
-0.00105261
0.136936
-0.00130352
0.134512
-0.00200327
0.13256
-0.00269629
0.130771
-0.00220982
0.128893
-0.00202628
0.127276
-0.00111828
0.12532
-0.00135475
0.124755
-0.000965456
0.124541
-0.000762455
0.125281
0.000349215
0.126128
0.000857587
0.12719
0.000584647
0.128548
0.000957648
0.129818
0.000604401
0.131656
0.00123155
0.132944
0.000814874
0.134308
0.00072228
0.135242
0.000152995
0.135474
-0.000519999
0.135651
-0.000802971
0.134653
-0.00170555
0.134011
-0.00166936
0.132341
-0.00239309
0.131179
-0.00208119
0.129585
-0.00208808
0.128263
-0.00169081
0.127613
-0.00109866
0.126697
-0.000943016
0.127169
-0.000254394
0.12682
-0.000534478
0.127444
-0.00023541
0.126949
-0.000961757
0.126058
-0.00130199
0.125002
-0.00189865
0.123046
-0.00248896
0.12177
-0.0023404
0.119624
-0.00245213
-0.00125615
0.133756
0.132704
0.1314
0.129397
0.1267
0.124491
0.122464
0.121346
0.119991
0.119026
0.118263
0.118613
0.11947
0.120055
0.121012
0.121617
0.122848
0.123663
0.124386
0.124539
0.124019
0.123216
0.12151
0.119841
0.117448
0.115366
0.113278
0.111588
0.110489
0.109546
0.109291
0.108757
0.108522
0.10756
0.106258
0.104359
0.10187
0.0995299
0.0970777
)
;

boundaryField
{
    inlet
    {
        type            calculated;
        value           nonuniform List<scalar> 10(-0.1 -0.1 -0.1 -0.1 -0.1 -0.1 -0.1 -0.1 -0.1 -0.1);
    }
    outlet
    {
        type            calculated;
        value           nonuniform List<scalar> 10(0.102403 0.120382 0.119505 0.101532 0.0525821 0.0508989 0.106936 0.131837 0.118102 0.0958216);
    }
    obstacle
    {
        type            calculated;
        value           uniform 0;
    }
    upperWall
    {
        type            calculated;
        value           uniform 0;
    }
    lowerWall
    {
        type            calculated;
        value           uniform 0;
    }
    frontAndBack
    {
        type            empty;
        value           nonuniform List<scalar> 0();
    }
}


// ************************************************************************* //
