/*--------------------------------*- C++ -*----------------------------------*\
  =========                 |
  \\      /  F ield         | OpenFOAM: The Open Source CFD Toolbox
   \\    /   O peration     | Website:  https://openfoam.org
    \\  /    A nd           | Version:  10
     \\/     M anipulation  |
\*---------------------------------------------------------------------------*/
FoamFile
{
    format      ascii;
    class       volVectorField;
    location    "1.525";
    object      U;
}
// * * * * * * * * * * * * * * * * * * * * * * * * * * * * * * * * * * * * * //

dimensions      [0 1 -1 0 0 0 0];

internalField   nonuniform List<vector> 
496
(
(9.91269 0.030698 0)
(10.1214 -0.146471 0)
(10.2853 -0.159423 0)
(10.848 -0.247419 0)
(9.73184 0.238852 0)
(10.2851 -0.945727 0)
(10.2399 -0.546522 0)
(11.2466 -1.09804 0)
(10.0685 0.979009 0)
(9.86654 -2.64293 0)
(10.8982 -0.556749 0)
(11.4449 -3.76007 0)
(10.7618 1.3587 0)
(9.03494 -2.62926 0)
(11.2854 0.280027 0)
(11.0656 -6.56083 0)
(11.4223 -0.221445 1.53427e-18)
(12.2945 -0.173968 1.33412e-18)
(11.7447 -0.629971 -1.94371e-18)
(12.9233 0.106217 3.6993e-18)
(13.2598 -2.16333 4.07918e-19)
(14.0341 -0.153624 -5.03445e-18)
(11.7739 -5.9745 -4.5469e-17)
(16.6822 -4.20908 7.15146e-17)
(12.8263 -0.141514 0)
(13.0983 -0.148334 0)
(13.1871 0.013107 0)
(13.2306 0.0641902 0)
(13.4717 0.0884621 0)
(13.8766 -0.265754 0)
(14.0657 -0.453224 0)
(14.0217 -0.552717 0)
(13.3793 0.740278 0)
(13.4915 1.16209 0)
(13.9168 0.657712 0)
(13.9965 0.375392 0)
(8.1744 -3.33182 0)
(11.2033 -2.05541 0)
(7.4067 -0.562392 0)
(8.64093 -0.0190493 0)
(13.2002 0.0898713 0)
(13.2098 0.155315 0)
(13.2427 0.267064 0)
(13.1193 0.304267 0)
(12.8761 0.278135 0)
(12.6091 0.303488 0)
(12.5241 0.268161 0)
(12.3779 0.273181 0)
(12.3486 0.226606 0)
(12.3145 0.246374 0)
(12.3638 0.240136 0)
(12.2742 0.233543 0)
(12.1827 0.270121 0)
(12.1416 0.274136 0)
(12.1396 0.33281 0)
(12.1355 0.312245 0)
(12.0053 0.371886 0)
(11.8527 0.366034 0)
(11.7034 0.416349 0)
(11.5811 0.428745 0)
(11.5556 0.432948 0)
(11.4363 0.448314 0)
(11.4825 0.396647 0)
(11.3717 0.412496 0)
(11.4696 0.36703 0)
(11.3834 0.408514 0)
(11.4274 0.41339 0)
(11.3295 0.458314 0)
(11.2279 0.501705 0)
(11.0791 0.499932 0)
(10.8339 0.561381 0)
(10.609 0.518718 0)
(10.3813 0.567609 0)
(10.1359 0.483696 0)
(10.1357 0.440481 0)
(9.92728 0.3545 0)
(10.1752 0.253241 0)
(10.0373 0.244537 0)
(10.2938 0.173365 0)
(10.2355 0.231411 0)
(14.0183 -0.462975 0)
(14.1267 -0.32958 0)
(14.1079 -0.155634 0)
(13.9046 -0.0870348 0)
(13.6413 -0.0393094 0)
(13.4401 0.0415071 0)
(13.303 0.000497395 0)
(13.2276 -0.0288266 0)
(13.1877 -0.161072 0)
(13.2468 -0.164407 0)
(13.2681 -0.246227 0)
(13.2595 -0.235725 0)
(13.223 -0.197461 0)
(13.2168 -0.157943 0)
(13.2618 -0.0926241 0)
(13.2628 -0.13969 0)
(13.2409 -0.119617 0)
(13.1126 -0.200026 0)
(13.0374 -0.197153 0)
(12.9215 -0.273598 0)
(12.8686 -0.316793 0)
(12.7758 -0.345218 0)
(12.7183 -0.394462 0)
(12.7109 -0.337908 0)
(12.7179 -0.379772 0)
(12.7762 -0.285365 0)
(12.7935 -0.284136 0)
(12.8076 -0.192107 0)
(12.7549 -0.13478 0)
(12.6399 -0.0865667 0)
(12.5488 -0.0347735 0)
(12.3161 -0.10945 0)
(12.2371 -0.109988 0)
(11.9273 -0.242385 0)
(11.8986 -0.248432 0)
(11.6974 -0.31389 0)
(11.7768 -0.349647 0)
(11.7847 -0.308672 0)
(11.8747 -0.354052 0)
(12.0261 -0.168091 0)
(14.3934 0.445943 0)
(14.3732 0.478103 0)
(14.3449 0.380696 0)
(14.12 0.233767 0)
(13.91 0.369985 0)
(13.8588 0.573116 0)
(13.6005 0.525727 0)
(13.6017 0.586562 0)
(13.4566 0.366505 0)
(13.5509 0.348152 0)
(13.5461 0.180645 0)
(13.5217 0.139815 0)
(13.6 0.208336 0)
(13.4822 0.215163 0)
(13.6972 0.467329 0)
(13.5493 0.41063 0)
(13.6945 0.634361 0)
(13.4777 0.580206 0)
(13.4461 0.703806 0)
(13.2795 0.699158 0)
(13.1332 0.595825 0)
(13.0972 0.59546 0)
(12.8722 0.329691 0)
(12.9214 0.384532 0)
(12.7088 0.156433 0)
(12.8009 0.247895 0)
(12.7361 0.250226 0)
(12.777 0.298363 0)
(12.8673 0.553413 0)
(12.7458 0.533411 0)
(12.8033 0.904789 0)
(12.463 0.809326 0)
(12.4424 1.02556 0)
(12.0766 0.837597 0)
(12.0577 0.658899 0)
(11.8622 0.477574 0)
(11.7816 0.024294 0)
(11.8261 0.0540388 0)
(11.7671 -0.236268 0)
(11.9592 -0.0222414 0)
(9.13705 -0.0180023 0)
(9.18031 -0.110719 0)
(8.6969 0.0556938 0)
(7.7533 -0.00550485 0)
(9.04871 0.18402 0)
(8.82755 0.268846 0)
(8.63213 0.28693 0)
(9.32503 0.254768 0)
(8.84565 0.0921067 0)
(9.77703 0.038545 0)
(9.58988 -0.163024 0)
(10.0508 -0.254125 0)
(10.2111 -0.311968 0)
(10.4199 -0.315313 0)
(10.9289 -0.29733 0)
(10.819 -0.342226 0)
(11.4469 -0.266055 0)
(11.2052 -0.288638 0)
(11.5865 -0.160782 0)
(11.3754 -0.122088 0)
(11.2349 -0.0321379 0)
(11.1117 0.0116479 0)
(10.5453 -0.0159432 0)
(10.5904 -0.0016572 0)
(10.0106 -0.0813522 0)
(10.2086 -0.0768213 0)
(10.0487 -0.152413 0)
(10.1596 -0.151006 0)
(10.5714 -0.0899576 0)
(10.5406 -0.0822759 0)
(11.1903 0.0941612 0)
(11.1401 0.106537 0)
(11.5703 0.215629 0)
(11.4317 0.172824 0)
(11.3363 0.140881 0)
(11.1419 0.0835348 0)
(10.5457 -0.0412386 0)
(10.6025 -0.00798837 0)
(9.99875 -0.241436 0)
(10.1548 -0.21902 0)
(13.3634 0.715492 -9.98126e-18)
(6.94329 -1.07784 -1.67008e-17)
(12.676 0.113001 2.93172e-17)
(4.11514 -4.99538 -8.02775e-17)
(12.0247 -0.824184 1.02978e-17)
(7.87523 1.06136 1.73978e-17)
(11.5033 -0.496757 -3.04145e-17)
(4.28455 4.82796 8.25258e-17)
(-0.398697 2.86783 0)
(-3.2671 3.31378 0)
(-5.25285 -3.16214 0)
(2.37934 1.46864 0)
(-6.5274 -0.492657 2.86857e-17)
(2.3527 1.61165 0)
(2.83017 -2.24103 0)
(-2.92104 -2.73461 0)
(-0.96188 0.823001 0)
(-3.29348 0.951479 0)
(-0.243614 -2.31278 0)
(0.842162 0.13198 0)
(-1.30789 1.77096 0)
(0.380815 -0.525699 0)
(-0.700355 0.243731 0)
(1.75395 -0.141223 0)
(-0.0577748 -0.468508 0)
(2.27955 -0.0242416 0)
(1.04825 -0.399136 0)
(1.75472 -0.280504 0)
(1.69949 -0.147636 0)
(2.09577 -0.0650845 0)
(1.91632 0.102701 0)
(2.35709 0.288723 0)
(2.24406 0.445301 0)
(2.36074 0.553399 0)
(2.47361 0.688593 0)
(2.40532 0.799825 0)
(2.50163 0.762386 0)
(2.64114 0.805085 0)
(2.56892 0.653028 0)
(2.8195 0.511024 0)
(2.95297 0.326103 0)
(3.14226 0.153745 0)
(3.38505 0.0100977 0)
(3.76104 -0.0332385 0)
(3.96656 0.0544887 0)
(4.17388 0.0878925 0)
(4.51532 0.340341 0)
(4.50622 0.527553 0)
(4.54388 0.660643 0)
(4.60794 0.810268 0)
(4.48963 0.844248 0)
(4.40612 0.671609 0)
(4.64078 0.468404 0)
(4.64787 0.295918 0)
(4.73623 -0.203358 0)
(5.26517 -0.167986 0)
(-0.794553 2.97115 0)
(0.507652 -0.433463 0)
(2.29078 -2.05161 0)
(-3.27626 0.979153 0)
(1.50935 -0.0292343 0)
(2.00529 -0.857727 0)
(0.403964 -0.634518 0)
(2.96457 -0.596995 0)
(0.494803 -0.193753 0)
(2.58111 -0.526159 0)
(1.1955 -0.416702 0)
(1.72671 -0.615442 0)
(1.17025 -0.750594 0)
(1.1744 -0.724518 0)
(0.829388 -0.630164 0)
(1.0623 -0.576994 0)
(0.911541 -0.419893 0)
(1.05422 -0.317389 0)
(0.993617 -0.100885 0)
(1.3913 -0.00522955 0)
(1.39701 0.00376476 0)
(1.78696 0.0802094 0)
(2.00279 -0.0502869 0)
(2.28234 -0.198243 0)
(2.45055 -0.312891 0)
(2.61097 -0.465127 0)
(2.85127 -0.59238 0)
(2.77029 -0.606261 0)
(3.04461 -0.501151 0)
(3.06845 -0.435221 0)
(3.17444 -0.141806 0)
(3.50714 0.0594729 0)
(3.59529 0.203025 0)
(3.95482 0.314147 0)
(4.1721 0.301413 0)
(4.6551 0.113763 0)
(4.64046 -0.0857234 0)
(5.11302 -0.264839 0)
(5.14566 -0.688958 0)
(5.0813 -0.591111 0)
(12.2781 -1.17136 0)
(8.12769 2.19285 0)
(12.5625 -0.164672 0)
(10.3859 5.85657 0)
(10.9161 -1.08666 0)
(9.15397 2.39112 0)
(10.956 0.437486 0)
(10.9418 3.33693 0)
(10.112 -0.304719 0)
(9.90499 0.976372 0)
(10.2746 0.573485 0)
(10.9646 1.08735 0)
(9.96981 -0.0623642 0)
(10.0148 0.179078 0)
(10.2485 0.159019 0)
(10.7783 0.256191 0)
(12.4099 5.82882 3.19033e-17)
(15.8361 3.90522 -5.59877e-17)
(12.7138 2.27454 0)
(13.4857 0.267197 0)
(11.6387 0.740968 0)
(12.6703 0.143384 0)
(11.4456 0.229388 0)
(12.2566 0.189553 0)
(9.65111 4.06469 0)
(9.48901 1.75724 0)
(9.44432 0.306643 0)
(11.4777 0.494421 0)
(13.0206 -0.191858 0)
(13.2369 -0.310116 0)
(13.6821 -0.408318 0)
(14.1382 -0.798189 0)
(13.2724 0.16852 0)
(13.746 0.421198 0)
(14.1072 0.502118 0)
(14.3378 0.400065 0)
(12.8989 0.208181 0)
(13.265 0.176299 0)
(13.5466 0.119074 0)
(13.649 -0.0532852 0)
(10.5111 0.758123 0)
(10.2924 0.313053 0)
(11.3711 -0.294595 0)
(11.375 0.0213524 0)
(10.8062 -0.443146 0)
(11.6987 -0.478755 0)
(11.4611 -0.35138 0)
(11.8158 -0.334581 0)
(11.654 -0.189328 0)
(11.4581 -0.0729132 0)
(11.7268 0.102556 0)
(11.0831 0.210159 0)
(11.2166 0.214088 0)
(10.3462 0.261117 0)
(10.166 0.242051 0)
(9.5343 0.334178 0)
(9.03343 0.333136 0)
(8.92947 0.350378 0)
(8.3121 0.328061 0)
(8.57371 0.275834 0)
(8.30579 0.248343 0)
(8.55269 0.185498 0)
(8.80894 0.110148 0)
(8.75971 0.0560972 0)
(9.37847 -0.0782639 0)
(8.97503 -0.098139 0)
(9.41643 -0.194609 0)
(9.01129 -0.152077 0)
(8.85311 -0.13513 0)
(8.88527 -0.0871857 0)
(8.31835 0.0466286 0)
(8.86161 0.0718781 0)
(8.39663 0.217939 0)
(9.1639 0.222042 0)
(9.18916 0.218782 0)
(9.76556 0.175289 0)
(10.286 0.0390492 0)
(10.3932 -0.0190063 0)
(10.9261 -0.0939007 0)
(10.6737 -0.0798093 0)
(14.0438 -0.727634 0)
(13.8579 -0.794096 0)
(13.7574 -0.948721 0)
(13.4237 -1.07629 0)
(13.311 -1.10015 0)
(12.9126 -1.01493 0)
(12.7859 -0.972735 0)
(12.3113 -0.811644 0)
(12.3879 -0.794922 0)
(12.2308 -0.503891 0)
(12.356 -0.380949 0)
(12.2086 -0.118505 0)
(12.1965 0.0126528 0)
(12.2209 0.0745095 0)
(12.2269 0.194064 0)
(12.3999 0.147516 0)
(12.407 0.297511 0)
(12.5238 0.211559 0)
(12.6263 0.215618 0)
(12.6255 0.120779 0)
(12.8905 -0.0693511 0)
(12.7883 -0.0863056 0)
(13.1235 -0.381078 0)
(12.9388 -0.335393 0)
(13.1661 -0.60704 0)
(13.0183 -0.561396 0)
(13.0894 -0.602867 0)
(13.0886 -0.584055 0)
(13.0117 -0.369508 0)
(13.1358 -0.418622 0)
(12.9766 -0.123819 0)
(13.112 -0.255464 0)
(13.0556 -0.114264 0)
(13.184 -0.272318 0)
(13.3157 -0.391871 0)
(13.3495 -0.489839 0)
(13.4838 -0.81069 0)
(13.3356 -0.733817 0)
(13.3608 -0.983266 0)
(13.1812 -0.687124 0)
(14.2812 0.35822 0)
(14.1341 0.297649 0)
(13.8218 0.281664 0)
(13.6208 0.235846 0)
(13.3771 0.197114 0)
(13.2161 0.222432 0)
(12.9381 0.221479 0)
(12.669 0.341968 0)
(12.5225 0.292398 0)
(12.4791 0.301915 0)
(12.5741 0.243741 0)
(12.5587 0.338986 0)
(12.5649 0.368861 0)
(12.5647 0.321088 0)
(12.7301 0.327973 0)
(12.9301 0.241392 0)
(13.1241 0.317525 0)
(13.27 0.239352 0)
(13.3696 0.246067 0)
(13.4793 0.13268 0)
(13.5496 0.0577299 0)
(13.5795 0.00439069 0)
(13.5387 -0.103076 0)
(13.4198 -0.0921816 0)
(13.3289 -0.176311 0)
(13.1306 -0.0864362 0)
(13.0688 -0.0872927 0)
(12.8458 0.0189572 0)
(12.8422 0.0885882 0)
(12.6709 0.123354 0)
(12.7292 0.22125 0)
(12.6629 0.164951 0)
(12.7188 0.226208 0)
(12.7151 0.0909611 0)
(12.6348 0.0466014 0)
(12.5788 -0.0725194 0)
(12.4015 -0.110691 0)
(12.2588 -0.0668368 0)
(12.1138 -0.0161169 0)
(11.8195 0.119753 0)
(13.6583 -0.186877 0)
(13.5114 -0.331054 0)
(13.2839 -0.407124 0)
(13.0117 -0.484792 0)
(12.7945 -0.583561 0)
(12.642 -0.625314 0)
(12.3939 -0.669597 0)
(12.1248 -0.604057 0)
(11.8868 -0.598388 0)
(11.9139 -0.540212 0)
(12.0205 -0.453639 0)
(11.9941 -0.325056 0)
(11.8865 -0.228273 0)
(11.8042 -0.192139 0)
(11.9723 -0.139927 0)
(12.1136 -0.124122 0)
(12.3391 -0.0778755 0)
(12.3515 -0.0695456 0)
(12.4385 -0.0847128 0)
(12.4233 -0.106438 0)
(12.4557 -0.168854 0)
(12.3903 -0.193 0)
(12.2522 -0.262919 0)
(12.0716 -0.278397 0)
(11.8416 -0.331573 0)
(11.6144 -0.345765 0)
(11.4362 -0.368302 0)
(11.2004 -0.377917 0)
(11.1632 -0.3502 0)
(10.939 -0.349925 0)
(11.0236 -0.297975 0)
(10.8265 -0.319434 0)
(10.9145 -0.30473 0)
(10.7525 -0.351744 0)
(10.7018 -0.371866 0)
(10.5467 -0.37486 0)
(10.3111 -0.399304 0)
(10.1033 -0.366131 0)
(9.84016 -0.417404 0)
(9.58394 -0.343777 0)
)
;

boundaryField
{
    inlet
    {
        type            fixedValue;
        value           uniform (10 0 0);
    }
    outlet
    {
        type            zeroGradient;
    }
    obstacle
    {
        type            noSlip;
    }
    upperWall
    {
        type            noSlip;
    }
    lowerWall
    {
        type            noSlip;
    }
    frontAndBack
    {
        type            empty;
    }
}


// ************************************************************************* //
