/*--------------------------------*- C++ -*----------------------------------*\
  =========                 |
  \\      /  F ield         | OpenFOAM: The Open Source CFD Toolbox
   \\    /   O peration     | Website:  https://openfoam.org
    \\  /    A nd           | Version:  10
     \\/     M anipulation  |
\*---------------------------------------------------------------------------*/
FoamFile
{
    format      ascii;
    class       volScalarField;
    location    "3.4";
    object      p;
}
// * * * * * * * * * * * * * * * * * * * * * * * * * * * * * * * * * * * * * //

dimensions      [0 2 -2 0 0 0 0];

internalField   nonuniform List<scalar> 
400
(
-8.75194e-09
-3.20856e-05
-1.17995e-05
3.40819e-05
0.000111126
0.000219736
0.000359774
0.000530729
0.000731205
0.000958567
0.00120861
0.00147526
0.00175036
0.0020236
0.00228277
0.00251435
0.00270407
0.00283865
0.00291674
0.0028951
3.19062e-05
-1.4331e-06
1.93313e-05
6.26729e-05
0.000135467
0.00023868
0.000372552
0.000536926
0.000730758
0.000951765
0.00119608
0.00145772
0.00172917
0.00200015
0.00225843
0.0024903
0.0026811
0.00281746
0.00289901
0.002876
8.26401e-06
-2.96834e-05
-1.05021e-05
3.04333e-05
0.000100715
0.000201541
0.000333522
0.000496966
0.000691327
0.000914807
0.00116399
0.0014338
0.00171618
0.00200075
0.00227464
0.00252296
0.0027292
0.00287768
0.00296736
0.00294049
-4.56477e-05
-8.77962e-05
-7.07298e-05
-3.28638e-05
3.42908e-05
0.000132338
0.000262485
0.000425754
0.000622387
0.000851397
0.00111011
0.00139385
0.00169539
0.00200391
0.00230532
0.00258261
0.0028163
0.00298677
0.00309142
0.00306265
-0.00013551
-0.000182458
-0.000168108
-0.000133969
-7.04532e-05
2.4588e-05
0.000153159
0.000317246
0.000518177
0.000756124
0.00102954
0.00133459
0.00166465
0.00200878
0.00235172
0.00267363
0.00295036
0.00315597
0.00328483
0.00325561
-0.000261916
-0.000314809
-0.000303987
-0.000274669
-0.000215939
-0.000124952
1.30394e-06
0.000166059
0.000372083
0.000621131
0.000913267
0.00124609
0.0016143
0.00200711
0.00240808
0.00279401
0.00313432
0.00339341
0.00355995
0.00353268
-0.000425482
-0.000485753
-0.000479575
-0.000456783
-0.000404856
-0.000320109
-0.000198299
-3.46392e-05
0.000175496
0.000435995
0.000749231
0.00111498
0.00153029
0.00198552
0.00246378
0.00293823
0.00337013
0.00370949
0.00393432
0.00391474
-0.000627254
-0.000696613
-0.000696563
-0.000682704
-0.000640616
-0.000565657
-0.000452136
-0.000293393
-8.25112e-05
0.000187176
0.000521295
0.000923077
0.00139236
0.00192362
0.00250097
0.00309473
0.00365681
0.00411684
0.00443263
0.00443487
-0.000868466
-0.000948892
-0.000956811
-0.000955044
-0.000926963
-0.000866904
-0.000767552
-0.00062011
-0.000414977
-0.000142109
0.000208334
0.000645276
0.00117137
0.00179028
0.00248978
0.0032403
0.00398484
0.0046279
0.00508788
0.00514672
-0.0011505
-0.00124421
-0.00126219
-0.00127639
-0.00126766
-0.00122932
-0.0011523
-0.00102553
-0.000836482
-0.000571349
-0.000215282
0.000246512
0.000827745
0.00153951
0.00238129
0.00333057
0.00432626
0.00524758
0.00594105
0.00614172
-0.00147501
-0.0015844
-0.00161449
-0.00164907
-0.00166614
-0.00165802
-0.00161389
-0.00152039
-0.00136213
-0.00112152
-0.000778347
-0.000309851
0.000309544
0.00110503
0.00209731
0.00328379
0.00461393
0.00595246
0.00703729
0.00758169
-0.00184442
-0.00197174
-0.00201533
-0.00207484
-0.00212496
-0.0021571
-0.00215863
-0.00211409
-0.0020057
-0.00181269
-0.00151003
-0.00106679
-0.000444349
0.000397604
0.00151745
0.00295319
0.00470011
0.00664638
0.00838977
0.00975156
-0.00226312
-0.00240957
-0.00246613
-0.00255452
-0.00264527
-0.00272881
-0.00279049
-0.00281303
-0.00277719
-0.00266085
-0.00243709
-0.00207111
-0.00151619
-0.000710271
0.000455669
0.00208149
0.00427217
0.00703374
0.00985358
0.0131424
-0.00274017
-0.00290308
-0.0029663
-0.00308584
-0.00322536
-0.00337274
-0.00351018
-0.00361885
-0.00367955
-0.00367139
-0.00357
-0.00334289
-0.00294037
-0.00227728
-0.00124553
0.000318267
0.00274176
0.00632014
0.010636
0.0174965
-0.00329095
-0.00347676
-0.00353773
-0.00369164
-0.00387888
-0.00409273
-0.00431574
-0.00452688
-0.00470604
-0.00483585
-0.00490244
-0.00489163
-0.00478135
-0.00452727
-0.00405022
-0.00315563
-0.00144162
0.00237477
0.00755766
0.0197307
-0.00400545
-0.00399687
-0.00401624
-0.00416657
-0.00443414
-0.00477095
-0.00513746
-0.00549754
-0.00582733
-0.00611577
-0.00636858
-0.0066051
-0.00686159
-0.00718724
-0.00766206
-0.00830066
-0.00901975
-0.00744255
-0.00422476
0.0145848
-0.00451964
-0.00504703
-0.00497602
-0.00527528
-0.00556718
-0.0059253
-0.00632646
-0.00674276
-0.00715652
-0.00755988
-0.00797409
-0.00845666
-0.00913258
-0.0102194
-0.0121557
-0.0152798
-0.0217793
-0.0247097
-0.0227792
0.00564684
-0.0076105
-0.00517187
-0.00494472
-0.00490199
-0.00534866
-0.00598241
-0.00670262
-0.00741404
-0.00808389
-0.00868489
-0.00927018
-0.00990402
-0.0108377
-0.0123262
-0.0154556
-0.0198773
-0.0303673
-0.0363746
-0.034665
0.0154981
-0.00455369
-0.00752826
-0.00701707
-0.00770141
-0.0080113
-0.00845978
-0.00899211
-0.00952555
-0.0100503
-0.0105278
-0.0109568
-0.0114983
-0.0123483
-0.0138461
-0.0177292
-0.0225779
-0.0337398
-0.0356392
-0.0173734
0.0630626
-0.0285467
-0.00398921
-0.00340091
-0.00349247
-0.00415005
-0.0051914
-0.00640846
-0.0075044
-0.00855768
-0.00935184
-0.0101975
-0.0108909
-0.0121077
-0.0135218
-0.0159919
-0.0174111
-0.0157083
0.00438138
0.0635409
0.197161
)
;

boundaryField
{
    movingWall
    {
        type            zeroGradient;
    }
    fixedWalls
    {
        type            zeroGradient;
    }
    frontAndBack
    {
        type            empty;
    }
}


// ************************************************************************* //
