/*--------------------------------*- C++ -*----------------------------------*\
  =========                 |
  \\      /  F ield         | OpenFOAM: The Open Source CFD Toolbox
   \\    /   O peration     | Website:  https://openfoam.org
    \\  /    A nd           | Version:  10
     \\/     M anipulation  |
\*---------------------------------------------------------------------------*/
FoamFile
{
    format      ascii;
    class       surfaceScalarField;
    location    "9.85";
    object      phi;
}
// * * * * * * * * * * * * * * * * * * * * * * * * * * * * * * * * * * * * * //

dimensions      [0 3 -1 0 0 0 0];

internalField   nonuniform List<scalar> 
760
(
-1.44678e-05
1.44677e-05
-4.69793e-05
3.25115e-05
-8.62848e-05
3.93055e-05
-0.00012812
4.18351e-05
-0.000171309
4.31889e-05
-0.000215671
4.43621e-05
-0.000261
4.53292e-05
-0.000306628
4.56274e-05
-0.00035116
4.45326e-05
-0.00039222
4.10595e-05
-0.000426209
3.39899e-05
-0.00044822
2.20109e-05
-0.000452246
4.0256e-06
-0.000431799
-2.0447e-05
-0.000382156
-4.96433e-05
-0.000303203
-7.89524e-05
-0.00020326
-9.99431e-05
-0.000101194
-0.000102066
-2.36709e-05
-7.75231e-05
-2.36709e-05
-3.57477e-05
5.02154e-05
-0.000100895
9.76593e-05
-0.00017745
0.00011586
-0.000258331
0.000122716
-0.000340991
0.000125849
-0.000424353
0.000127724
-0.000507335
0.000128312
-0.000588178
0.00012647
-0.000664032
0.000120387
-0.000730624
0.000107651
-0.000782008
8.5374e-05
-0.000810396
5.03981e-05
-0.000807506
1.13552e-06
-0.00076375
-6.42025e-05
-0.000672866
-0.000140528
-0.000535329
-0.000216489
-0.000364093
-0.000271179
-0.000189128
-0.000277032
-5.30019e-05
-0.000213649
-7.66728e-05
-4.59313e-05
9.61467e-05
-0.000126981
0.000178709
-0.000221219
0.000210099
-0.000320102
0.000221599
-0.000420548
0.000226295
-0.000521192
0.000228367
-0.000620722
0.000227842
-0.000717146
0.000222894
-0.00080735
0.000210591
-0.000886704
0.000187006
-0.000948689
0.000147359
-0.000984884
8.65938e-05
-0.000984764
1.01496e-06
-0.000936085
-0.000112881
-0.000828993
-0.00024762
-0.000660619
-0.000384862
-0.000444681
-0.000487118
-0.000222366
-0.000499346
-5.66652e-05
-0.00037935
-0.000133338
-4.9935e-05
0.000146082
-0.000137935
0.000266709
-0.000239943
0.000312106
-0.00034679
0.000328446
-0.000455397
0.000334903
-0.000564624
0.000337594
-0.000673512
0.000336729
-0.000780545
0.000329928
-0.000883176
0.000313222
-0.000977317
0.000281146
-0.00105669
0.00022673
-0.00111208
0.000141982
-0.00113095
1.98893e-05
-0.00109671
-0.000147126
-0.000990688
-0.000353639
-0.000799703
-0.000575847
-0.000531923
-0.000754897
-0.000245514
-0.000785755
-4.7482e-05
-0.000577382
-0.00018082
-5.06779e-05
0.00019676
-0.000140946
0.000356977
-0.000245875
0.000417036
-0.000356129
0.0004387
-0.000468927
0.0004477
-0.000583701
0.000452368
-0.000700302
0.000453331
-0.000818276
0.000447902
-0.000936351
0.000431297
-0.00105179
0.000396582
-0.00115939
0.000334336
-0.0012501
0.000232687
-0.00130894
7.8735e-05
-0.00131401
-0.000142059
-0.00123241
-0.000435236
-0.00102823
-0.000780027
-0.000689319
-0.00109381
-0.000294719
-0.00118035
-3.48117e-05
-0.00083729
-0.000215632
-4.97307e-05
0.00024649
-0.000139801
0.000447047
-0.000245192
0.000522427
-0.000356605
0.000550112
-0.000471689
0.000562785
-0.000590679
0.000571358
-0.000714597
0.000577248
-0.000844566
0.000577871
-0.000981367
0.000568098
-0.00112473
0.000539941
-0.00127215
0.000481758
-0.001417
0.000377539
-0.00154497
0.000206709
-0.00163107
-5.59574e-05
-0.00161971
-0.000446601
-0.00143071
-0.000969028
-0.00100305
-0.00152147
-0.000436341
-0.00174706
-4.34704e-05
-0.00123016
-0.000259102
-4.77758e-05
0.000294266
-0.000136156
0.000535427
-0.000240433
0.000626704
-0.000351393
0.000661072
-0.00046714
0.000678532
-0.0005888
0.000693018
-0.000718805
0.000707253
-0.00086036
0.000719426
-0.00101718
0.000724917
-0.0011931
0.00071586
-0.0013912
0.00067986
-0.00161213
0.000598464
-0.0018494
0.000443985
-0.00207556
0.000170197
-0.00220867
-0.000313483
-0.00208605
-0.00109165
-0.00157681
-0.00203072
-0.000802658
-0.00252121
-0.000154326
-0.00187849
-0.000413428
-4.50582e-05
0.000339324
-0.000130603
0.000620972
-0.000232375
0.000728476
-0.000341153
0.000769851
-0.000455403
0.000792782
-0.000577094
0.000814709
-0.000710103
0.000840262
-0.000859959
0.000869282
-0.00103412
0.000899075
-0.00124235
0.000924098
-0.00149705
0.000934555
-0.00181292
0.00091434
-0.00219969
0.00083075
-0.00262501
0.000595522
-0.00296252
2.40189e-05
-0.0029512
-0.00110297
-0.00243398
-0.00254794
-0.00153082
-0.00342437
-0.000503029
-0.00290628
-0.000916457
-4.17313e-05
0.000381056
-0.000123469
0.000702709
-0.000221313
0.00082632
-0.000325831
0.000874369
-0.000435617
0.000902568
-0.000553258
0.00093235
-0.000683835
0.000970839
-0.000835001
0.00102045
-0.00101796
0.00108204
-0.0012493
0.00115543
-0.00155336
0.00123862
-0.00196138
0.00132236
-0.00249562
0.00136499
-0.00310835
0.00120825
-0.00360152
0.000517197
-0.00371788
-0.000986608
-0.00334189
-0.00292393
-0.00248865
-0.00427761
-0.00111904
-0.00427589
-0.0020355
-3.80835e-05
0.000419139
-0.000115339
0.000779964
-0.000207883
0.000918864
-0.000305796
0.000972283
-0.000407458
0.00100423
-0.000515643
0.00104054
-0.000636003
0.0010912
-0.000777376
0.00116182
-0.00095337
0.00125803
-0.00118522
0.00138728
-0.00150505
0.00155845
-0.00195149
0.0017688
-0.00253726
0.00195076
-0.00318484
0.00185583
-0.00369369
0.00102605
-0.00386818
-0.000812122
-0.00369535
-0.00309677
-0.00307476
-0.0048982
-0.00172924
-0.00562141
-0.00376474
-3.46667e-05
0.000453806
-0.00010736
0.000852657
-0.000193545
0.00100505
-0.000282502
0.00106124
-0.000372033
0.00109376
-0.000464504
0.00113301
-0.000565046
0.00119174
-0.000681728
0.0012785
-0.000827001
0.00140331
-0.00101988
0.00158015
-0.00128698
0.00182555
-0.00165392
0.00213575
-0.00211286
0.0024097
-0.00258125
0.00232422
-0.00293917
0.00138397
-0.00310482
-0.000646478
-0.0031169
-0.00308468
-0.00282443
-0.00519067
-0.00184517
-0.00660067
-0.00560991
-3.258e-05
0.000486386
-0.000101748
0.000921825
-0.000181133
0.00108443
-0.000259064
0.00113917
-0.00033272
0.00116742
-0.000403571
0.00120386
-0.000475108
0.00126328
-0.00055244
0.00135583
-0.000642715
0.00149358
-0.000755255
0.00169269
-0.000900102
0.00197039
-0.00108058
0.00231623
-0.00128475
0.00261387
-0.00147433
0.0025138
-0.00163413
0.00154376
-0.00177368
-0.000506929
-0.00194621
-0.00291215
-0.0020186
-0.00511828
-0.0014957
-0.00712357
-0.00710561
-3.30155e-05
0.000519401
-0.000101049
0.000989859
-0.000174442
0.00115783
-0.000240565
0.00120529
-0.000295905
0.00122276
-0.000340986
0.00124894
-0.000377392
0.00129968
-0.000406431
0.00138487
-0.000428623
0.00151577
-0.000442
0.00170607
-0.00044055
0.00196894
-0.000410171
0.00228585
-0.000350453
0.00255415
-0.000289004
0.00245235
-0.000296478
0.00155124
-0.000463392
-0.000340015
-0.000816875
-0.00255866
-0.0011997
-0.00473546
-0.0010837
-0.00723957
-0.0081893
-4.0299e-05
0.0005597
-0.000112414
0.00106197
-0.000180372
0.00122579
-0.000232576
0.0012575
-0.000267365
0.00125754
-0.000285082
0.00126666
-0.000285204
0.0012998
-0.000265743
0.00136541
-0.000221933
0.00147196
-0.000143383
0.00162752
-1.29113e-05
0.00183847
0.000182435
0.0020905
0.000444887
0.0022917
0.000700041
0.0021972
0.00080215
0.00144913
0.000602376
-0.000140242
0.00011574
-0.00207203
-0.000553072
-0.00406664
-0.000767296
-0.00702535
-0.0089566
-5.0635e-05
0.000610335
-0.00013149
0.00114283
-0.000199978
0.00129427
-0.000244813
0.00130233
-0.000262136
0.00127487
-0.00025335
0.00125787
-0.000218437
0.00126489
-0.000154463
0.00130144
-5.47675e-05
0.00137227
9.23988e-05
0.00148036
0.000302837
0.00162803
0.000597595
0.00179574
0.000969091
0.0019202
0.0013343
0.00183199
0.00151276
0.00127067
0.0013119
6.06192e-05
0.000729907
-0.00149004
-0.000101348
-0.00323539
-0.000509443
-0.00661725
-0.00946604
-0.000118553
0.000728889
-0.000213403
0.00123768
-0.0002646
0.00134547
-0.000280322
0.00131806
-0.000268562
0.00126311
-0.000232074
0.00122138
-0.000168424
0.00120124
-7.20877e-05
0.0012051
6.49131e-05
0.00123527
0.00025318
0.00129209
0.000507007
0.00137421
0.000838909
0.00146384
0.00123524
0.00152388
0.00162355
0.00144368
0.0018302
0.00106402
0.00166284
0.000227976
0.00107243
-0.000899625
0.000188565
-0.00235153
-0.000312912
-0.00611577
-0.00977895
-7.62817e-05
0.000805171
-0.000238193
0.00139959
-0.000327895
0.00143517
-0.000352273
0.00134243
-0.000330334
0.00124117
-0.000272834
0.00116388
-0.000182249
0.00111066
-5.54619e-05
0.00107831
0.000112961
0.00106684
0.000332206
0.00107284
0.000609264
0.00109715
0.000949145
0.00112396
0.00133324
0.00113978
0.00170367
0.00107325
0.00191802
0.000849666
0.00178767
0.000358324
0.00129784
-0.00040979
0.000545706
-0.00159939
6.35599e-05
-0.00563363
-0.00971539
-0.000373421
0.00117859
-0.000414788
0.00144096
-0.000439176
0.00145956
-0.000449102
0.00135236
-0.00041018
0.00120225
-0.000329227
0.00108293
-0.000209188
0.000990617
-4.77862e-05
0.000916913
0.000154053
0.000865004
0.000401839
0.000825057
0.000693721
0.000805268
0.00103021
0.000787472
0.0013911
0.000778887
0.00172417
0.000740181
0.00195335
0.000620484
0.0019463
0.000365376
0.00178366
-0.000247149
0.00144645
-0.00126219
0.0008236
-0.00501077
-0.0088918
-0.00136296
0.00254155
-0.00131918
0.00139718
-0.00104776
0.00118814
-0.000662727
0.000967323
-0.000258401
0.000797922
0.000149607
0.000674921
0.000550958
0.000589267
0.000946134
0.000521736
0.00133686
0.000474276
0.00172875
0.000433166
0.00212648
0.000407546
0.00253158
0.000382366
0.00294894
0.000361531
0.0033606
0.000328516
0.00373447
0.000246618
0.00398803
0.000111813
0.00406487
-0.000323991
0.00393402
-0.00113133
0.00249892
-0.00357567
-0.00639288
0.00254155
0.00393873
0.00512687
0.00609419
0.00689212
0.00756704
0.0081563
0.00867804
0.00915232
0.00958548
0.00999303
0.0103754
0.0107369
0.0110654
0.0113121
0.0114239
0.0110999
0.00996855
0.00639288
)
;

boundaryField
{
    movingWall
    {
        type            calculated;
        value           uniform 0;
    }
    fixedWalls
    {
        type            calculated;
        value           uniform 0;
    }
    frontAndBack
    {
        type            empty;
        value           nonuniform List<scalar> 0();
    }
}


// ************************************************************************* //
