/*--------------------------------*- C++ -*----------------------------------*\
  =========                 |
  \\      /  F ield         | OpenFOAM: The Open Source CFD Toolbox
   \\    /   O peration     | Website:  https://openfoam.org
    \\  /    A nd           | Version:  10
     \\/     M anipulation  |
\*---------------------------------------------------------------------------*/
FoamFile
{
    format      ascii;
    class       surfaceScalarField;
    location    "6.725";
    object      phi;
}
// * * * * * * * * * * * * * * * * * * * * * * * * * * * * * * * * * * * * * //

dimensions      [0 3 -1 0 0 0 0];

internalField   nonuniform List<scalar> 
890
(
0.0098455
0.000154504
0.00971844
0.000127054
0.00946945
0.000248997
0.00942078
4.86643e-05
0.000143823
0.00927696
0.0101197
3.478e-05
0.0102023
4.45273e-05
0.0104062
4.50705e-05
0.010465
-1.01778e-05
-7.14505e-05
0.0106803
0.0100725
-3.77124e-05
0.0102153
-9.82611e-05
0.0103783
-0.0001179
0.0105208
-0.000152692
-0.000191663
0.010641
0.0100913
-0.000128971
0.0102118
-0.000218797
0.0103318
-0.000237861
0.0104166
-0.000237541
-0.000253444
0.0104784
0.00987103
0.00965223
0.00941437
0.00917683
0.00892339
0.00926328
-0.000106946
0.000120622
0.00928898
-0.000267863
0.000242163
0.009369
-0.000379555
0.000299542
0.00949732
-0.000480489
0.000352168
0.0096628
-0.000585992
0.000420514
0.00985961
-0.000747991
0.000551179
0.0100651
-0.000947488
0.000741975
0.0102764
-0.00119223
0.000980938
0.0104736
-0.0014702
0.00127301
0.0106417
-0.00176396
0.00159588
0.0107662
-0.00205653
0.00193205
0.0108325
-0.0023102
0.00224381
0.0108376
-0.00250697
0.00250192
0.0107603
-0.00260543
0.0026827
0.0105831
-0.00257326
0.00275049
0.0103352
-0.00247106
0.002719
0.010069
-0.00234489
0.00261107
0.00978233
-0.00212341
0.00241004
0.00947667
-0.00183565
0.00214132
0.00916764
-0.00150651
0.00181554
0.00886031
-0.00113752
0.00144485
0.00856648
-0.000766641
0.00106047
0.00831248
-0.000435628
0.000689626
0.00809526
-0.000139342
0.000356565
0.00790475
0.000117406
7.30999e-05
0.00775712
0.000322638
-0.000175003
0.00765301
0.000474078
-0.000369969
0.00758138
0.000584715
-0.000513088
0.00752151
0.000676158
-0.000616286
0.00745954
0.000751828
-0.000689856
0.00738955
0.000798322
-0.000728338
0.00731006
0.000796134
-0.00071664
0.00722243
0.000747691
-0.000660061
0.00712777
0.000681954
-0.000587297
0.00703155
0.000634281
-0.000538059
0.00694186
0.000616907
-0.000527218
0.00686347
0.000616725
-0.000538334
0.00679478
0.000605933
-0.000537243
0.0067315
0.00056763
-0.000504345
0.00667095
0.000497874
-0.000437325
0.00661506
0.000405708
-0.000349823
0.00656575
0.000311106
-0.000261789
0.0065275
0.000213437
-0.000175194
0.00649695
0.000151282
-0.000120733
7.25638e-05
-5.55002e-05
0.0107426
-0.000169222
0.0107666
-0.000291852
0.0107969
-0.000409946
0.0108422
-0.00052577
0.0108959
-0.000639667
0.0109333
-0.000785399
0.0109428
-0.000956954
0.0109255
-0.00117494
0.0108666
-0.00141128
0.0107646
-0.00166195
0.0106028
-0.00189476
0.0103903
-0.00209768
0.0101185
-0.00223517
0.00974905
-0.002236
0.00929487
-0.00211908
0.00880451
-0.00198069
0.00829537
-0.00183576
0.00779228
-0.00162032
0.00730253
-0.00134591
0.00684802
-0.001052
0.00643183
-0.000721332
0.00606679
-0.000401594
0.00575908
-0.000127925
0.00551467
0.000105076
0.00533859
0.000293482
0.00522652
0.00043471
0.00516249
0.000538109
0.00512668
0.000620527
0.00511318
0.000689658
0.00512653
0.000738469
0.00517127
0.000753582
0.00523966
0.000727751
0.00531533
0.000672022
0.00538628
0.000610997
0.00545333
0.000567233
0.00552546
0.000544776
0.00560989
0.000532299
0.00570687
0.000508952
0.00581029
0.000464209
0.00591348
0.000394683
0.00600764
0.00031155
0.00609206
0.000226687
0.00615791
0.000147579
0.00621519
9.40029e-05
3.74656e-05
0.0107269
-0.000255102
0.0107693
-0.000334313
0.0107887
-0.000429308
0.0107854
-0.000522485
0.0107668
-0.00062108
0.0107149
-0.000733527
0.0106293
-0.000871344
0.0104946
-0.00104025
0.0103118
-0.00122849
0.0100916
-0.00144174
0.00982534
-0.00162846
0.00951988
-0.00179222
0.00905308
-0.00176837
0.00843467
-0.00161759
0.00780133
-0.00148574
0.00712578
-0.00130515
0.00635
-0.00105998
0.0055764
-0.000846709
0.00488447
-0.00065399
0.00426913
-0.00043666
0.00376352
-0.000215721
0.00337761
-1.56827e-05
0.00308505
0.000164635
0.0028837
0.000306423
0.00276817
0.000409013
0.00273214
0.000470744
0.00276228
0.000507968
0.00285392
0.000528888
0.00300336
0.000540216
0.00320139
0.000540441
0.00343032
0.00052465
0.0036675
0.000490574
0.0038939
0.000445618
0.00410239
0.00040251
0.0042992
0.000370423
0.00449564
0.000348339
0.00469931
0.000328625
0.00490827
0.000299992
0.00511353
0.000258948
0.00530309
0.000205124
0.00546584
0.000148803
0.00559808
9.44409e-05
0.0056936
5.20602e-05
0.00576587
2.17298e-05
2.70046e-07
0.0105054
-0.000282073
0.0104922
-0.000321153
0.0104323
-0.000369445
0.010322
-0.000412194
0.0101704
-0.000469444
0.00995775
-0.00052087
0.00968952
-0.000603119
0.00932952
-0.000680246
0.00890154
-0.000800516
0.00836626
-0.000906463
0.00778382
-0.00104602
0.00716893
-0.00117733
0.0063706
-0.000970045
0.00532368
-0.000570674
0.00406971
-0.000231767
0.00281262
-4.80567e-05
0.0017598
-7.16385e-06
0.000998029
-8.49356e-05
0.000519086
-0.000175046
0.000263687
-0.000181261
0.00015588
-0.000107913
0.000141449
-1.25239e-06
0.000223033
8.30509e-05
0.000374945
0.000154511
0.000581779
0.000202179
0.000825576
0.000226947
0.00109685
0.000236691
0.00138727
0.000238473
0.001691
0.000236487
0.00200147
0.000229967
0.00230846
0.000217658
0.00259966
0.000199381
0.00286737
0.000177909
0.00311244
0.000157439
0.00334226
0.000140605
0.003564
0.000126594
0.00377976
0.000112862
0.00398361
9.61491e-05
0.0041663
7.62581e-05
0.00431735
5.4069e-05
0.00443247
3.3686e-05
0.0045109
1.60149e-05
0.00455822
4.73239e-06
0.00458319
-3.23274e-06
-5.76359e-06
0.00864131
0.00832016
0.00795072
0.00753852
0.00706908
0.00654821
0.00594509
0.00526484
0.00446433
0.00355786
0.00251185
0.00133452
0.000364476
-0.000206197
-0.000437964
-0.000486021
-0.000493184
-0.00057812
-0.000753166
-0.000934427
-0.00104234
-0.00104359
-0.000960542
-0.000806031
-0.000603852
-0.000376905
-0.000140215
9.82581e-05
0.000334745
0.000564712
0.00078237
0.000981751
0.00115966
0.0013171
0.0014577
0.0015843
0.00169716
0.00179331
0.00186957
0.00192364
0.00195732
0.00197334
0.00197807
0.00197484
5.81875e-05
-5.81875e-05
1.3778e-05
4.44095e-05
-0.000217935
0.000231713
-0.000696367
0.000478432
-0.00132108
0.000624715
-0.00195173
0.000630643
-0.00250128
0.000549552
-0.00293697
0.000435696
-0.00323308
0.000296108
-0.00337629
0.000143211
-0.00335436
-2.19283e-05
-0.00318095
-0.000173409
-0.00286136
-0.000319594
-0.00241152
-0.000449835
-0.00186169
-0.000549836
-0.00125055
-0.000611135
-0.000612377
-0.000638177
2.81326e-05
-0.00064051
0.000640047
-0.000611914
0.00119254
-0.000552495
0.00166306
-0.00047052
0.0020382
-0.000375141
0.00231449
-0.000276288
0.00249691
-0.000182417
0.00259566
-9.87543e-05
0.0026223
-2.664e-05
0.00258655
3.57541e-05
0.00249219
9.436e-05
0.00234923
0.000142959
0.00217638
0.000172849
0.00199855
0.000177832
0.00183938
0.00015917
0.00171211
0.000127265
0.00162434
8.77765e-05
0.00157184
5.24909e-05
0.00154804
2.38054e-05
0.00154642
1.62051e-06
0.00156355
-1.71296e-05
0.00159582
-3.22721e-05
0.00163991
-4.40896e-05
0.00168922
-4.93087e-05
0.00173923
-5.00098e-05
0.00178227
-4.30445e-05
0.00182024
-3.79715e-05
-2.39619e-05
-0.000172116
0.000113929
-0.000587495
0.000459789
-0.00105879
0.000703009
-0.00147796
0.000897597
-0.00181221
0.00095897
-0.00206837
0.000886806
-0.0022356
0.00071678
-0.00230444
0.000504537
-0.00226331
0.000254977
-0.00210014
-1.99643e-05
-0.00183054
-0.000291527
-0.00143059
-0.000573359
-0.000913518
-0.000836664
-0.000297483
-0.00106587
0.000385097
-0.00123242
0.00110549
-0.00133153
0.00183441
-0.00136709
0.00254477
-0.00135087
0.00320861
-0.00127576
0.00380523
-0.00114911
0.00431589
-0.000981177
0.00472862
-0.000787869
0.00504171
-0.000589381
0.00525902
-0.000399725
0.00538534
-0.000225073
0.00543515
-7.64477e-05
0.0054293
4.16041e-05
0.00539296
0.000130696
0.00534138
0.000194541
0.00527953
0.0002347
0.00520355
0.000253806
0.00511421
0.000248513
0.00501206
0.000229414
0.00488766
0.000212176
0.00473688
0.000203274
0.00457391
0.000186775
0.00442275
0.000152781
0.00430844
9.71775e-05
0.00424331
3.28655e-05
0.00422626
-2.70455e-05
0.00424313
-6.61733e-05
0.00428242
-8.93004e-05
0.00432529
-8.59161e-05
0.0043712
-8.38795e-05
-5.68436e-05
-0.00049692
0.000610848
-0.000663504
0.000626373
-0.000671604
0.000711109
-0.000580916
0.000806909
-0.000435021
0.000813074
-0.000253448
0.000705233
-4.32512e-05
0.000506583
0.000212166
0.00024912
0.000523466
-5.63236e-05
0.000910368
-0.000406866
0.00138243
-0.000763586
0.001921
-0.00111193
0.00251547
-0.00143113
0.00315159
-0.00170198
0.00380786
-0.00188869
0.0044635
-0.00198718
0.00509624
-0.00199982
0.00568135
-0.00193598
0.00620637
-0.00180078
0.00665662
-0.00159936
0.00702274
-0.0013473
0.00730096
-0.00106609
0.00749054
-0.000778956
0.007598
-0.000507188
0.00763936
-0.000266435
0.00762432
-6.14077e-05
0.00755961
0.000106313
0.00746417
0.000226138
0.0073493
0.00030941
0.00721332
0.000370682
0.00706551
0.00040162
0.00692756
0.000386454
0.00681817
0.000338809
0.00673651
0.000293836
0.00665814
0.000281646
0.00654986
0.000295048
0.0064023
0.000300344
0.00623192
0.000267562
0.00606627
0.000198511
0.00593056
0.00010867
0.00583342
3.09602e-05
0.00577547
-3.13469e-05
0.005746
-5.64462e-05
0.00573591
-7.37887e-05
-5.86557e-05
-0.000206075
0.000816923
-5.96028e-05
0.000479901
0.000239507
0.000411999
0.000672131
0.000374285
0.00117784
0.00030736
0.00171316
0.000169915
0.00226133
-4.15846e-05
0.00280902
-0.000298567
0.00337365
-0.00062096
0.00394865
-0.000981862
0.00454225
-0.00135719
0.00514735
-0.00171703
0.00575338
-0.00203716
0.00634578
-0.00229439
0.00690731
-0.00245022
0.00742092
-0.00250079
0.0078785
-0.00245741
0.00826999
-0.00232747
0.00859157
-0.00212237
0.0088393
-0.00184709
0.00901172
-0.00151972
0.00911489
-0.00116926
0.00915369
-0.000817757
0.00913719
-0.000490692
0.00908006
-0.000209301
0.00899325
2.53981e-05
0.00887199
0.000227571
0.00872838
0.000369757
0.00857108
0.000466709
0.0084085
0.000533258
0.00824162
0.000568497
0.00806965
0.000558427
0.00790239
0.000506065
0.00775473
0.000441497
0.00763152
0.000404859
0.00752095
0.00040562
0.00740181
0.000419482
0.00725956
0.000409814
0.00709498
0.000363091
0.00692065
0.000283
0.00675616
0.000195444
0.00661072
0.000114101
0.00649959
5.46768e-05
0.00640985
1.59576e-05
-8.1005e-06
0.000937545
0.00165961
0.00237115
0.0030976
0.00382548
0.00454657
0.00524696
0.00592933
0.00658139
0.0071954
0.00777026
0.00829704
0.0087618
0.00915012
0.00945039
0.0096686
0.00982227
0.00990485
0.0099238
0.00989225
0.00981739
0.0097086
0.00958047
0.00944634
0.00931014
0.00916053
0.00901814
0.00887481
0.00872523
0.00856863
0.00840879
0.00825058
0.00809658
0.00795078
0.00781758
0.00769598
0.00757713
0.0074497
0.00730845
0.00715412
0.00699974
0.00685206
0.00673154
0.00662676
)
;

boundaryField
{
    inlet
    {
        type            calculated;
        value           nonuniform List<scalar> 5(-0.01 -0.01 -0.01 -0.01 -0.01);
    }
    outlet
    {
        type            calculated;
        value           nonuniform List<scalar> 10(0.00647989 0.00625029 0.00580307 0.00458922 0.00196907 0.00184421 0.00440408 0.00573772 0.00635929 0.00656316);
    }
    upperWall
    {
        type            calculated;
        value           uniform 0;
    }
    lowerWall
    {
        type            calculated;
        value           uniform 0;
    }
    frontAndBack
    {
        type            empty;
        value           nonuniform List<scalar> 0();
    }
}


// ************************************************************************* //
