/*--------------------------------*- C++ -*----------------------------------*\
  =========                 |
  \\      /  F ield         | OpenFOAM: The Open Source CFD Toolbox
   \\    /   O peration     | Website:  https://openfoam.org
    \\  /    A nd           | Version:  10
     \\/     M anipulation  |
\*---------------------------------------------------------------------------*/
FoamFile
{
    format      ascii;
    class       surfaceScalarField;
    location    "9.575";
    object      phi;
}
// * * * * * * * * * * * * * * * * * * * * * * * * * * * * * * * * * * * * * //

dimensions      [0 3 -1 0 0 0 0];

internalField   nonuniform List<scalar> 
760
(
-1.41469e-05
1.41463e-05
-4.58314e-05
3.16845e-05
-8.4102e-05
3.82707e-05
-0.000124773
4.06705e-05
-0.000166655
4.18824e-05
-0.00020953
4.28749e-05
-0.000253158
4.36284e-05
-0.000296865
4.37072e-05
-0.000339304
4.24387e-05
-0.000378226
3.89221e-05
-0.000410287
3.20611e-05
-0.00043097
2.06831e-05
-0.000434784
3.81348e-06
-0.0004158
-1.89842e-05
-0.000369611
-4.6189e-05
-0.000295812
-7.37987e-05
-0.000201429
-9.43832e-05
-0.00010314
-9.82892e-05
-2.58025e-05
-7.73371e-05
-2.58025e-05
-3.46816e-05
4.88279e-05
-9.78517e-05
9.48545e-05
-0.000172007
0.000112426
-0.000250196
0.00011886
-0.000329878
0.000121565
-0.000409951
0.000122948
-0.000489332
0.000123009
-0.000566316
0.000120691
-0.000638205
0.000114327
-0.000701012
0.000101729
-0.000749253
8.03025e-05
-0.000775795
4.72254e-05
-0.000773088
1.10618e-06
-0.000732359
-5.97136e-05
-0.000647769
-0.000130778
-0.000519346
-0.000202222
-0.000358074
-0.000255654
-0.000190331
-0.000266033
-5.55464e-05
-0.000212121
-8.13488e-05
-4.44173e-05
9.32452e-05
-0.000122806
0.000173244
-0.000213858
0.000203477
-0.000309196
0.000214198
-0.00040576
0.000218129
-0.000502174
0.000219362
-0.000597136
0.000217971
-0.000688728
0.000212284
-0.000774015
0.000199614
-0.000848686
0.0001764
-0.00090673
0.000138347
-0.00094045
8.09449e-05
-0.000940256
9.12067e-07
-0.000895014
-0.000104956
-0.000795736
-0.000230057
-0.000639474
-0.000358484
-0.000437635
-0.000457493
-0.000225699
-0.00047797
-6.09235e-05
-0.000376896
-0.000142272
-4.82223e-05
0.000141467
-0.00013325
0.000258271
-0.000231713
0.00030194
-0.000334631
0.000317116
-0.000438944
0.000322442
-0.000543483
0.000323901
-0.000647274
0.000321763
-0.000748835
0.000313844
-0.000845734
0.000296513
-0.000934134
0.0002648
-0.00100821
0.000212422
-0.00105949
0.000132228
-0.00107657
1.79847e-05
-0.00104445
-0.000137075
-0.000946461
-0.000328042
-0.000770754
-0.00053419
-0.000523485
-0.000704762
-0.00025319
-0.000748265
-5.4953e-05
-0.000575133
-0.000197225
-4.89734e-05
0.000190441
-0.000136261
0.000345559
-0.000237618
0.000403297
-0.000343889
0.000423387
-0.000452291
0.000430844
-0.00056219
0.0004338
-0.000673355
0.000432927
-0.00078526
0.000425749
-0.000896608
0.000407861
-0.00100473
0.000372925
-0.0011047
0.000312394
-0.00118805
0.000215573
-0.00124103
7.09645e-05
-0.00124387
-0.000134237
-0.00116771
-0.000404202
-0.00098153
-0.000720366
-0.000672976
-0.00101332
-0.000304077
-0.00111716
-4.56458e-05
-0.000833564
-0.000242871
-4.81958e-05
0.000238637
-0.000135519
0.000432882
-0.000237562
0.00050534
-0.000345185
0.00053101
-0.000456007
0.000541666
-0.000570141
0.000547933
-0.000688426
0.000551212
-0.000811767
0.000549091
-0.000940694
0.000536788
-0.00107469
0.000506922
-0.00121109
0.000448788
-0.00134326
0.000347751
-0.00145765
0.000185353
-0.00153165
-6.02434e-05
-0.001518
-0.000417849
-0.00134847
-0.000889894
-0.000963794
-0.00139799
-0.000434682
-0.00164628
-5.24607e-05
-0.00121579
-0.000295332
-4.6532e-05
0.000285169
-0.000132587
0.000518937
-0.000233946
0.000606699
-0.00034152
0.000638584
-0.00045336
0.000653506
-0.000570414
0.000664987
-0.00069483
0.000675629
-0.000829406
0.000683666
-0.000977294
0.000684677
-0.00114158
0.000671209
-0.00132435
0.000631553
-0.00152498
0.00054839
-0.00173634
0.000396708
-0.00193535
0.000138767
-0.00205467
-0.000298531
-0.00195475
-0.000989807
-0.00149629
-0.00185646
-0.000759291
-0.00238328
-0.000142552
-0.00183252
-0.000437883
-4.41996e-05
0.000329368
-0.000127995
0.000602733
-0.000227456
0.00070616
-0.000333458
0.000744586
-0.000444402
0.00076445
-0.000562051
0.000782635
-0.000689915
0.000803493
-0.000832952
0.000826703
-0.000997721
0.000849445
-0.00119256
0.000866044
-0.00142757
0.000866566
-0.0017144
0.000835221
-0.00206159
0.000743897
-0.00244708
0.000524256
-0.00277217
2.65649e-05
-0.00279165
-0.000970327
-0.00230702
-0.0023411
-0.00141724
-0.00327306
-0.000449436
-0.00280033
-0.000887319
-4.133e-05
0.000370698
-0.000122021
0.000683424
-0.00021832
0.000802459
-0.000320872
0.000847138
-0.000428233
0.000871812
-0.000542794
0.000897196
-0.000669251
0.00092995
-0.000814603
0.000972056
-0.000988946
0.00102379
-0.00120692
0.00108402
-0.00148981
0.00114946
-0.00186595
0.00121136
-0.00236044
0.00123839
-0.00294528
0.00110909
-0.00344896
0.000530244
-0.00359878
-0.000820506
-0.00321623
-0.00272365
-0.00235354
-0.00413574
-0.00104176
-0.00411211
-0.00192908
-3.81844e-05
0.000408883
-0.000115189
0.000760429
-0.000207084
0.000894354
-0.000304025
0.000944079
-0.000404417
0.000972204
-0.000510917
0.0010037
-0.000628884
0.00104792
-0.000766619
0.00110979
-0.000936767
0.00119394
-0.00115893
0.00130617
-0.00146319
0.00145372
-0.00188873
0.0016369
-0.00245905
0.00180871
-0.00312018
0.00177023
-0.00367332
0.00108338
-0.00387973
-0.000614102
-0.00369315
-0.00291022
-0.00305164
-0.00477725
-0.00168687
-0.00547689
-0.00361594
-3.52825e-05
0.000444165
-0.000108568
0.000833714
-0.000195082
0.000980869
-0.000284199
0.00103319
-0.000373846
0.00106185
-0.000466422
0.00109627
-0.000567012
0.00114851
-0.00068357
0.00122635
-0.000828387
0.00133875
-0.0010205
0.00149829
-0.00128788
0.0017211
-0.0016619
0.00201092
-0.00214618
0.00229299
-0.00266571
0.00228975
-0.00308018
0.00149785
-0.00326931
-0.000424972
-0.0032624
-0.00291713
-0.00292079
-0.00511885
-0.00187468
-0.006523
-0.00549062
-3.36693e-05
0.000477834
-0.000104247
0.000904292
-0.000184947
0.00106157
-0.000264215
0.00111246
-0.000339452
0.00113709
-0.00041234
0.00116916
-0.000486617
0.00122278
-0.000567805
0.00130754
-0.000663844
0.00143479
-0.000785714
0.00162016
-0.000946659
0.00188204
-0.00115579
0.00222006
-0.0014038
0.002541
-0.0016441
0.00253006
-0.00184174
0.00169549
-0.00198222
-0.000284493
-0.00212539
-0.00277396
-0.00214765
-0.00509659
-0.00156536
-0.00710529
-0.00705598
-3.45171e-05
0.000512351
-0.000104694
0.000974469
-0.000180289
0.00113716
-0.000248804
0.00118098
-0.000307028
0.00119531
-0.000355814
0.00121795
-0.000397185
0.00126415
-0.000433136
0.00134349
-0.000465418
0.00146707
-0.000494331
0.00164907
-0.000516604
0.00190431
-0.000521995
0.00222545
-0.000504345
0.00252335
-0.000471552
0.00249726
-0.000484233
0.00170817
-0.000623946
-0.000144779
-0.00093498
-0.00246293
-0.00128228
-0.0047493
-0.00112679
-0.00726077
-0.00818277
-4.20562e-05
0.000554408
-0.000116853
0.00104927
-0.000187744
0.00120806
-0.000243253
0.00123649
-0.000282004
0.00123406
-0.000304679
0.00124062
-0.000311188
0.00127066
-0.000300274
0.00133257
-0.000268338
0.00143514
-0.000207058
0.00158779
-0.000101205
0.00179846
6.67732e-05
0.00205747
0.000299085
0.00229104
0.000539138
0.00225721
0.000660616
0.00158669
0.00050072
1.51168e-05
5.53851e-05
-0.0020176
-0.00059594
-0.00409797
-0.000790989
-0.00706572
-0.00897376
-5.25501e-05
0.000606958
-0.000136472
0.00113319
-0.000208402
0.00127999
-0.000257168
0.00128525
-0.000279144
0.00125604
-0.000276013
0.00123749
-0.00024807
0.00124272
-0.000192861
0.00127736
-0.000104517
0.0013468
2.94713e-05
0.0014538
0.00022246
0.00160547
0.000496511
0.00178342
0.000853716
0.00193383
0.00122232
0.00188861
0.00142897
0.00138004
0.00127459
0.000169492
0.000720583
-0.00146358
-0.000105084
-0.0032723
-0.000516089
-0.00665472
-0.00948985
-0.000120421
0.000727379
-0.000218406
0.00123117
-0.000273313
0.00133489
-0.000293277
0.00130522
-0.00028662
0.00124938
-0.000256184
0.00120705
-0.000199614
0.00118615
-0.000111429
0.00118918
1.65021e-05
0.00121886
0.000193674
0.00127663
0.000436405
0.00136274
0.000758074
0.00146175
0.00115221
0.0015397
0.0015546
0.00148621
0.00179743
0.00113721
0.00166759
0.000299334
0.00109656
-0.00089256
0.000207171
-0.00238291
-0.000306242
-0.00614131
-0.00979609
-7.75198e-05
0.000804899
-0.000242264
0.00139592
-0.000335873
0.0014285
-0.000365316
0.00133466
-0.000349153
0.00123322
-0.000298042
0.00115594
-0.000214378
0.00110249
-9.49989e-05
0.0010698
6.57811e-05
0.00105808
0.000277555
0.00106486
0.000548708
0.00109159
0.000886284
0.00112417
0.00127567
0.00115031
0.00166395
0.00109793
0.00191103
0.000890131
0.00181357
0.000396785
0.0013292
-0.000408184
0.000563925
-0.00161764
6.88613e-05
-0.00564624
-0.00972723
-0.000374397
0.0011793
-0.000418629
0.00144015
-0.000447316
0.00145719
-0.000462088
0.00134943
-0.000428275
0.00119941
-0.000352507
0.00108017
-0.000237785
0.000987765
-8.18222e-05
0.000913838
0.000114667
0.000861594
0.000357616
0.00082191
0.00064648
0.000802725
0.000983548
0.000787105
0.00135105
0.000782808
0.00169924
0.000749748
0.00195346
0.00063591
0.00196898
0.000381267
0.00180778
-0.000246981
0.00146028
-0.00127014
0.000829252
-0.00501521
-0.00889798
-0.00136299
0.00254229
-0.00132052
0.00139768
-0.00105138
0.00118805
-0.000668924
0.000966971
-0.000266995
0.000797479
0.000138718
0.00067446
0.000537766
0.000588717
0.000930481
0.000521123
0.00131863
0.000473447
0.00170799
0.000432549
0.00210382
0.000406895
0.00250844
0.000382482
0.0029286
0.000362644
0.00334714
0.000331216
0.00373285
0.000250198
0.00399856
0.000115553
0.00407543
-0.000323846
0.0039394
-0.00113411
0.00250183
-0.00357764
-0.00639615
0.00254229
0.00393996
0.00512802
0.00609499
0.00689247
0.00756693
0.00815564
0.00867677
0.00915021
0.00958276
0.00998966
0.0103721
0.0107348
0.011066
0.0113162
0.0114318
0.0111079
0.00997379
0.00639615
)
;

boundaryField
{
    movingWall
    {
        type            calculated;
        value           uniform 0;
    }
    fixedWalls
    {
        type            calculated;
        value           uniform 0;
    }
    frontAndBack
    {
        type            empty;
        value           nonuniform List<scalar> 0();
    }
}


// ************************************************************************* //
