/*--------------------------------*- C++ -*----------------------------------*\
  =========                 |
  \\      /  F ield         | OpenFOAM: The Open Source CFD Toolbox
   \\    /   O peration     | Website:  https://openfoam.org
    \\  /    A nd           | Version:  10
     \\/     M anipulation  |
\*---------------------------------------------------------------------------*/
FoamFile
{
    format      ascii;
    class       surfaceScalarField;
    location    "5.55";
    object      phi;
}
// * * * * * * * * * * * * * * * * * * * * * * * * * * * * * * * * * * * * * //

dimensions      [0 3 -1 0 0 0 0];

internalField   nonuniform List<scalar> 
22800
(
-2.21656e-06
2.64888e-06
-4.27765e-07
-7.3353e-06
5.12642e-06
-7.68604e-09
-1.33693e-05
5.84196e-06
1.92017e-07
-1.96503e-05
5.99073e-06
2.90253e-07
-2.59154e-05
5.97131e-06
2.93843e-07
-3.20325e-05
5.88168e-06
2.35452e-07
-3.78752e-05
5.71316e-06
1.29472e-07
-4.32777e-05
5.42793e-06
-2.53957e-08
-4.80436e-05
4.97928e-06
-2.13378e-07
-5.19068e-05
4.32452e-06
-4.61329e-07
-5.4558e-05
3.42066e-06
-7.69481e-07
-5.56518e-05
2.23398e-06
-1.14018e-06
-5.48333e-05
7.60646e-07
-1.57912e-06
-5.17717e-05
-1.01872e-06
-2.04289e-06
-4.62661e-05
-2.99328e-06
-2.51226e-06
-3.83023e-05
-5.03097e-06
-2.9329e-06
-2.82034e-05
-6.8838e-06
-3.21503e-06
-1.68414e-05
-8.12976e-06
-3.23228e-06
-5.94997e-06
-7.9999e-06
-2.89153e-06
-4.4686e-06
-1.48137e-06
-4.59615e-06
8.58648e-06
-1.34146e-06
-1.33946e-05
1.49354e-05
-1.01054e-06
-2.34654e-05
1.67321e-05
-8.19349e-07
-3.38135e-05
1.70005e-05
-6.61584e-07
-4.40111e-05
1.6755e-05
-5.86146e-07
-5.38137e-05
1.62495e-05
-5.65207e-07
-6.2998e-05
1.54833e-05
-5.85814e-07
-7.13053e-05
1.43862e-05
-6.50991e-07
-7.84233e-05
1.28663e-05
-7.6903e-07
-8.39769e-05
1.08266e-05
-9.48443e-07
-8.75264e-05
8.16698e-06
-1.19682e-06
-8.86039e-05
4.83093e-06
-1.51946e-06
-8.67544e-05
8.31275e-07
-1.92008e-06
-8.15251e-05
-3.87534e-06
-2.37275e-06
-7.26399e-05
-9.03677e-06
-2.84169e-06
-6.01166e-05
-1.4288e-05
-3.26632e-06
-4.44464e-05
-1.90255e-05
-3.52855e-06
-2.69003e-05
-2.22028e-05
-3.47305e-06
-9.99098e-06
-2.19072e-05
-3.00202e-06
-1.3195e-05
-1.26458e-06
-5.39403e-06
1.57876e-05
-1.80713e-06
-1.55134e-05
2.66083e-05
-1.55349e-06
-2.69997e-05
2.95817e-05
-1.3633e-06
-3.8744e-05
2.99154e-05
-1.17068e-06
-5.02835e-05
2.93473e-05
-1.05271e-06
-6.13577e-05
2.83082e-05
-9.84564e-07
-7.17301e-05
2.68114e-05
-9.55677e-07
-8.11271e-05
2.47564e-05
-9.73173e-07
-8.92169e-05
2.20045e-05
-1.04831e-06
-9.55986e-05
1.84021e-05
-1.19387e-06
-9.98077e-05
1.37983e-05
-1.42216e-06
-0.000101311
8.07664e-06
-1.74247e-06
-9.95252e-05
1.20668e-06
-2.16114e-06
-9.39097e-05
-6.83996e-06
-2.65089e-06
-8.40828e-05
-1.56807e-05
-3.183e-06
-6.99569e-05
-2.47312e-05
-3.68262e-06
-5.19995e-05
-3.29772e-05
-4.00565e-06
-3.16278e-05
-3.8618e-05
-3.9565e-06
-1.1797e-05
-3.83198e-05
-3.41821e-06
-2.36047e-05
-1.38725e-06
-5.62845e-06
2.35858e-05
-2.16972e-06
-1.62802e-05
3.92522e-05
-1.99214e-06
-2.83603e-05
4.34715e-05
-1.80982e-06
-4.0721e-05
4.38748e-05
-1.59861e-06
-5.29052e-05
4.29874e-05
-1.45592e-06
-6.46691e-05
4.14325e-05
-1.36041e-06
-7.57953e-05
3.92405e-05
-1.30296e-06
-8.60279e-05
3.6281e-05
-1.29203e-06
-9.50423e-05
3.23654e-05
-1.34646e-06
-0.000102428
2.72726e-05
-1.48438e-06
-0.00010768
2.07727e-05
-1.72266e-06
-0.000110193
1.2668e-05
-2.07809e-06
-0.000109289
2.87005e-06
-2.56779e-06
-0.000104216
-8.74158e-06
-3.17181e-06
-9.43324e-05
-2.17215e-05
-3.84239e-06
-7.93188e-05
-3.52498e-05
-4.495e-06
-5.95069e-05
-4.78419e-05
-4.94714e-06
-3.64472e-05
-5.67295e-05
-4.94822e-06
-1.36276e-05
-5.68007e-05
-4.33875e-06
-3.53588e-05
-1.87352e-06
-5.71941e-06
3.17852e-05
-2.47999e-06
-1.6734e-05
5.26363e-05
-2.3695e-06
-2.92612e-05
5.81956e-05
-2.19692e-06
-4.21239e-05
5.87128e-05
-1.97526e-06
-5.48801e-05
5.75648e-05
-1.82125e-06
-6.73188e-05
5.55872e-05
-1.71604e-06
-7.92595e-05
5.28349e-05
-1.65356e-06
-9.04817e-05
4.91493e-05
-1.64613e-06
-0.000100689
4.42868e-05
-1.71429e-06
-0.000109476
3.79445e-05
-1.88511e-06
-0.000116301
2.97827e-05
-2.18468e-06
-0.000120465
1.94697e-05
-2.63809e-06
-0.0001211
6.7698e-06
-3.26416e-06
-0.000117228
-8.53263e-06
-4.08077e-06
-0.000107794
-2.61442e-05
-5.01187e-06
-9.20649e-05
-4.50224e-05
-5.95627e-06
-7.00651e-05
-6.31709e-05
-6.67087e-06
-4.33997e-05
-7.65942e-05
-6.80068e-06
-1.63589e-05
-7.77549e-05
-6.08663e-06
-4.8822e-05
-2.89567e-06
-5.79743e-06
4.03812e-05
-2.79855e-06
-1.71929e-05
6.67867e-05
-2.75494e-06
-3.02056e-05
7.38029e-05
-2.59446e-06
-4.36211e-05
7.44955e-05
-2.36732e-06
-5.70171e-05
7.31705e-05
-2.20969e-06
-7.02276e-05
7.09032e-05
-2.10548e-06
-8.31269e-05
6.77862e-05
-2.05212e-06
-9.5551e-05
6.36405e-05
-2.06712e-06
-0.000107255
5.81676e-05
-2.17632e-06
-0.000117868
5.09711e-05
-2.41381e-06
-0.000126835
4.15687e-05
-2.81978e-06
-0.000133363
2.94327e-05
-3.43499e-06
-0.000136383
1.4081e-05
-4.29051e-06
-0.000134573
-4.87781e-06
-5.46478e-06
-0.000126297
-2.75839e-05
-6.83647e-06
-0.000110144
-5.28846e-05
-8.29126e-06
-8.55257e-05
-7.82877e-05
-9.50116e-06
-5.39074e-05
-9.82757e-05
-9.93685e-06
-2.06873e-05
-0.000101873
-9.10192e-06
-6.47707e-05
-4.73855e-06
-5.88702e-06
4.94383e-05
-3.17012e-06
-1.77205e-05
8.18244e-05
-3.20415e-06
-3.12828e-05
9.04234e-05
-3.05834e-06
-4.53092e-05
9.13475e-05
-2.82551e-06
-5.9402e-05
8.99275e-05
-2.66423e-06
-7.34536e-05
8.75172e-05
-2.56243e-06
-8.74137e-05
8.42688e-05
-2.52254e-06
-0.000101204
8e-05
-2.56866e-06
-0.000114671
7.43694e-05
-2.73571e-06
-0.000127518
6.68886e-05
-3.06979e-06
-0.000139233
5.69133e-05
-3.62987e-06
-0.000148972
4.36562e-05
-4.48451e-06
-0.00015545
2.62658e-05
-5.7072e-06
-0.000156989
4.07597e-06
-7.41402e-06
-0.000151133
-2.39307e-05
-9.50974e-06
-0.000135408
-5.67485e-05
-1.18605e-05
-0.000108079
-9.16014e-05
-1.40156e-05
-6.99608e-05
-0.000121238
-1.51561e-05
-2.77698e-05
-0.000129769
-1.42956e-05
-8.44657e-05
-8.07488e-06
-5.98919e-06
5.9053e-05
-3.62545e-06
-1.83216e-05
9.7913e-05
-3.75625e-06
-3.24824e-05
0.000108211
-3.6263e-06
-4.71413e-05
0.000109388
-3.38159e-06
-6.19295e-05
0.000107924
-3.2087e-06
-7.68126e-05
0.000105502
-3.10168e-06
-9.18394e-05
0.000102366
-3.07008e-06
-0.000107053
9.83608e-05
-3.14687e-06
-0.000122439
9.31345e-05
-3.37916e-06
-0.000137852
8.61329e-05
-3.83183e-06
-0.000152907
7.65616e-05
-4.59275e-06
-0.000166827
6.33512e-05
-5.77487e-06
-0.000178217
4.51702e-05
-7.51493e-06
-0.000184786
2.05912e-05
-9.94611e-06
-0.000183535
-1.18984e-05
-1.32832e-05
-0.0001702
-5.28678e-05
-1.72154e-05
-0.000141008
-9.96077e-05
-2.11863e-05
-9.50311e-05
-0.000143278
-2.39358e-05
-4.0017e-05
-0.000161312
-2.34707e-05
-0.000109961
-1.45218e-05
-6.11495e-06
6.93636e-05
-4.19566e-06
-1.90148e-05
0.000115263
-4.45032e-06
-3.38036e-05
0.000127334
-4.3349e-06
-4.90665e-05
0.000128715
-4.06428e-06
-6.44681e-05
0.000127188
-3.86184e-06
-8.00618e-05
0.000124826
-3.73063e-06
-9.60192e-05
0.000122013
-3.69016e-06
-0.000112542
0.000118668
-3.78491e-06
-0.000129813
0.000114484
-4.078e-06
-0.000147926
0.000108906
-4.65999e-06
-0.000166758
0.000101056
-5.66186e-06
-0.000185763
8.96245e-05
-7.26875e-06
-0.000203645
7.27736e-05
-9.72099e-06
-0.000217904
4.81362e-05
-1.32864e-05
-0.00022459
1.32725e-05
-1.84849e-05
-0.000217459
-3.48833e-05
-2.51155e-05
-0.000189379
-9.51582e-05
-3.25291e-05
-0.000135545
-0.000158235
-3.88778e-05
-6.26805e-05
-0.000193858
-4.03181e-05
-0.000144399
-2.82424e-05
-6.30525e-06
8.05917e-05
-4.92283e-06
-1.98739e-05
0.00013417
-5.33829e-06
-3.53103e-05
0.000148001
-5.23017e-06
-5.10945e-05
0.000149407
-4.90804e-06
-6.69314e-05
0.000147668
-4.6435e-06
-8.29763e-05
0.000145324
-4.45321e-06
-9.9541e-05
0.000142948
-4.36974e-06
-0.000117014
0.000140593
-4.45175e-06
-0.000135832
0.000138083
-4.78189e-06
-0.000156427
0.000134984
-5.48325e-06
-0.000179112
0.000130487
-6.7452e-06
-0.000203855
0.000123226
-8.85809e-06
-0.000229862
0.000111024
-1.22437e-05
-0.000254879
9.06222e-05
-1.74697e-05
-0.000274027
5.7618e-05
-2.51968e-05
-0.00028025
7.63317e-06
-3.6294e-05
-0.000260597
-6.49323e-05
-4.98783e-05
-0.000203212
-0.000151762
-6.38584e-05
-0.000107165
-0.00021832
-7.15855e-05
-0.000193265
-5.82996e-05
-6.65765e-06
9.3122e-05
-5.87273e-06
-2.10749e-05
0.000155085
-6.49786e-06
-3.71868e-05
0.000170493
-6.37996e-06
-5.33554e-05
0.000171538
-5.96207e-06
-6.93424e-05
0.000169236
-5.5806e-06
-8.54195e-05
0.000166674
-5.27265e-06
-0.000102045
0.000164661
-5.08805e-06
-0.000119799
0.000163447
-5.10014e-06
-0.000139389
0.000163087
-5.41267e-06
-0.000161658
0.000163437
-6.18535e-06
-0.000187524
0.000164029
-7.67584e-06
-0.000217799
0.000163805
-1.03042e-05
-0.000252774
0.000160737
-1.47381e-05
-0.000291414
0.000151213
-2.19498e-05
-0.000330023
0.000129371
-3.31446e-05
-0.000359098
8.66409e-05
-4.99325e-05
-0.000364044
1.35956e-05
-7.35824e-05
-0.000316907
-9.86047e-05
-0.000100293
-0.000194901
-0.000218888
-0.000121438
-0.000270885
-0.00011728
-7.37384e-06
0.000107653
-7.15692e-06
-2.29682e-05
0.000178734
-8.05391e-06
-3.98138e-05
0.000195233
-7.89467e-06
-5.61758e-05
0.000195206
-7.30557e-06
-7.19091e-05
0.000191686
-6.71685e-06
-8.74296e-05
0.000188391
-6.19681e-06
-0.000103335
0.000186385
-5.81891e-06
-0.000120358
0.00018614
-5.67024e-06
-0.000139434
0.000188034
-5.87103e-06
-0.000161787
0.000192403
-6.61309e-06
-0.000189007
0.000199469
-8.21911e-06
-0.00022306
0.000209098
-1.12409e-05
-0.000266072
0.000220352
-1.66026e-05
-0.000319638
0.000230485
-2.57065e-05
-0.000383402
0.000233421
-4.02863e-05
-0.000451489
0.000216625
-6.18966e-05
-0.000502834
0.000156374
-9.14331e-05
-0.00049156
1.47534e-05
-0.000124633
-0.000346684
-0.000211292
-0.000152473
-0.000438391
-0.000179177
-8.8551e-06
0.000125474
-8.96627e-06
-2.62048e-05
0.000206255
-1.01715e-05
-4.38866e-05
0.000222801
-9.88579e-06
-6.01739e-05
0.000220486
-8.99294e-06
-7.51145e-05
0.000214695
-8.06796e-06
-8.93163e-05
0.000209806
-7.21259e-06
-0.000103503
0.000207089
-6.51741e-06
-0.000118461
0.000207173
-6.07478e-06
-0.000135197
0.000210788
-6.01832e-06
-0.000155127
0.000218879
-6.54512e-06
-0.000180321
0.000232661
-7.99815e-06
-0.000213787
0.000253524
-1.09595e-05
-0.000259849
0.000282769
-1.63554e-05
-0.000324238
0.00032015
-2.52752e-05
-0.000413758
0.000360901
-3.79597e-05
-0.000530218
0.000384783
-5.16985e-05
-0.000657297
0.000341629
-5.8176e-05
-0.000715871
0.000114386
-4.10595e-05
-0.000559949
-0.000346656
-2.05575e-05
-0.000865806
-0.000132534
-1.20089e-05
0.000149263
-1.17804e-05
-3.20546e-05
0.000239837
-1.35361e-05
-5.05625e-05
0.00025442
-1.31112e-05
-6.624e-05
0.000247859
-1.16961e-05
-7.96673e-05
0.000238222
-1.01004e-05
-9.17206e-05
0.000230421
-8.56171e-06
-0.000103107
0.000225721
-7.245e-06
-0.000114524
0.000224864
-6.27435e-06
-0.000126819
0.000228843
-5.75945e-06
-0.000141216
0.00023913
-5.85517e-06
-0.000159762
0.000258036
-6.82839e-06
-0.000185829
0.000288642
-9.05126e-06
-0.000225553
0.00033524
-1.27477e-05
-0.000288993
0.000400058
-1.64675e-05
-0.000394406
0.000479184
-1.28707e-05
-0.000561911
0.000535216
1.70723e-05
-0.000798303
0.000475072
0.000102948
-0.000977846
4.47399e-05
0.00024919
-0.000788587
-0.000855692
0.000319777
-0.00165795
3.55711e-06
-1.73867e-05
0.000182546
-1.58956e-05
-4.13144e-05
0.000281079
-1.73149e-05
-6.09429e-05
0.000290315
-1.62669e-05
-7.61756e-05
0.000276963
-1.38707e-05
-8.76267e-05
0.000261156
-1.14828e-05
-9.6518e-05
0.000248553
-9.24125e-06
-0.00010374
0.000240227
-7.28402e-06
-0.00010985
0.000236672
-5.69815e-06
-0.000115249
0.000238806
-4.56451e-06
-0.000120343
0.000248207
-3.98226e-06
-0.000126308
0.000267941
-3.94035e-06
-0.00013544
0.000301876
-4.10145e-06
-0.000154889
0.000357521
-2.83181e-06
-0.000199396
0.000437708
6.85791e-06
-0.000309998
0.000543482
4.63039e-05
-0.000544418
0.000611569
0.000158067
-0.000938117
0.000490543
0.000378229
-0.00121946
-0.000287962
0.000614048
-0.000955372
-0.00167846
0.000558672
-0.00259216
-2.11614e-05
-3.81313e-05
0.000244692
-2.40155e-05
-6.51495e-05
0.000335532
-2.74349e-05
-8.18782e-05
0.000332257
-2.52135e-05
-9.11938e-05
0.000307456
-2.11777e-05
-9.71052e-05
0.000283623
-1.65559e-05
-0.000101117
0.000264744
-1.21783e-05
-0.000103585
0.000251081
-8.38639e-06
-0.000104095
0.000242503
-5.32058e-06
-0.000102051
0.000239761
-2.99938e-06
-9.62436e-05
0.000243771
-1.37106e-06
-8.61661e-05
0.00025804
-1.77396e-07
-7.18952e-05
0.000285808
1.79704e-06
-6.00676e-05
0.000337142
8.55111e-06
-6.92607e-05
0.000413071
3.38292e-05
-0.000163085
0.000527335
0.00010997
-0.000429117
0.000587239
0.000290363
-0.000918037
0.000396223
0.00058324
-0.00124334
-0.000724752
0.000762089
-0.00100148
-0.00238129
0.000460976
-0.00337828
-0.000215361
-3.19519e-05
0.000316116
-3.94713e-05
-7.62233e-05
0.000417206
-3.74027e-05
-0.000101026
0.000389454
-3.23946e-05
-0.000114572
0.000344597
-2.3595e-05
-0.000118292
0.000303964
-1.66205e-05
-0.000115897
0.000272641
-1.02927e-05
-0.000109462
0.000249605
-4.95907e-06
-9.93995e-05
0.000233185
-7.44358e-07
-8.53224e-05
0.000223155
2.52872e-06
-6.46895e-05
0.000218448
4.69046e-06
-3.48649e-05
0.000222252
5.96348e-06
7.40853e-06
0.000234986
8.54849e-06
6.08383e-05
0.000266469
1.72432e-05
0.000111309
0.000314936
4.76651e-05
0.000108999
0.000397159
0.000132486
-6.37437e-05
0.000444759
0.000315222
-0.000475827
0.000222185
0.000586122
-0.000895127
-0.000959984
0.000654532
-0.000891738
-0.00264605
0.000261372
-0.00385275
-0.000417263
-0.000179088
0.000545356
-5.01527e-05
-0.0001811
0.000479205
-5.99863e-05
-0.000160707
0.000424261
-5.52006e-05
-0.00013888
0.000366073
-4.33022e-05
-0.00011021
0.000303683
-2.83892e-05
-7.96224e-05
0.000257067
-1.50133e-05
-4.89412e-05
0.000223442
-4.51809e-06
-1.70001e-05
0.00019801
3.2342e-06
1.6991e-05
0.000180581
8.58366e-06
5.63475e-05
0.000167477
1.1614e-05
0.000104364
0.000162166
1.207e-05
0.000167805
0.000159963
1.15823e-05
0.00024883
0.000170706
1.47376e-05
0.000349869
0.000183501
3.03965e-05
0.000447983
0.000213331
8.57146e-05
0.000477432
0.000200128
0.000215181
0.000323119
-3.61624e-06
0.000380114
-0.000165672
-0.000917184
0.000445992
-0.000498319
-0.00244711
0.000133709
-0.00377523
-0.000575846
-0.000370691
0.00107995
-0.000163906
-0.000263034
0.000486349
-0.000114801
-0.000112898
0.000356839
-8.27138e-05
4.9238e-05
0.000255805
-5.18675e-05
0.000201104
0.00018296
-3.11436e-05
0.000337756
0.000135388
-1.49732e-05
0.000457462
0.000106121
-2.38538e-06
0.000561938
8.58879e-05
7.64575e-06
0.000653637
7.36799e-05
1.52014e-05
0.000737702
6.39591e-05
1.94537e-05
0.000818414
6.09128e-05
2.054e-05
0.000904005
5.69111e-05
1.74621e-05
0.0010011
6.05452e-05
1.30675e-05
0.00111809
5.65966e-05
9.91131e-06
0.00126732
4.92311e-05
1.4867e-05
0.00139473
2.05703e-06
7.06603e-05
0.00143498
-0.000163577
0.000119712
0.0010411
-0.000699955
0.000176658
0.000267587
-0.00171068
3.70751e-05
-0.00277982
-0.00072782
0.00122737
-0.000147418
0.00187001
-0.000156292
0.0023795
-0.000152652
0.00277184
-0.00013653
0.00307232
-0.000117521
0.00330884
-0.000101134
0.00350056
-8.5596e-05
0.00365854
-7.20918e-05
0.00379234
-6.0127e-05
0.00390575
-4.94499e-05
0.00400754
-4.0877e-05
0.00409904
-3.45845e-05
0.00418722
-2.76393e-05
0.00427042
-2.66037e-05
0.00433624
-1.65879e-05
0.0043545
-1.62048e-05
0.00418614
4.78728e-06
0.00351433
-2.81425e-05
0.0019012
-9.75533e-05
-0.000878616
-4.01973e-06
4.39859e-06
-8.06627e-07
-1.2908e-05
9.41763e-06
-5.37022e-07
-2.32675e-05
1.08982e-05
-3.46691e-07
-3.38122e-05
1.10621e-05
-2.27194e-07
-4.41093e-05
1.08015e-05
-2.10556e-07
-5.39536e-05
1.03524e-05
-2.72627e-07
-6.31449e-05
9.7213e-06
-4.00589e-07
-7.14358e-05
8.86066e-06
-5.95167e-07
-7.85007e-05
7.71424e-06
-8.6264e-07
-8.39696e-05
6.21752e-06
-1.20994e-06
-8.74111e-05
4.31405e-06
-1.64212e-06
-8.83563e-05
1.96408e-06
-2.15904e-06
-8.63415e-05
-8.40587e-07
-2.75331e-06
-8.0948e-05
-4.04338e-06
-3.393e-06
-7.19175e-05
-7.50794e-06
-4.03485e-06
-5.92571e-05
-1.09873e-05
-4.60593e-06
-4.34277e-05
-1.40476e-05
-4.99685e-06
-2.57043e-05
-1.58859e-05
-5.06972e-06
-8.99105e-06
-1.49015e-05
-4.70324e-06
-7.47028e-06
-3.00214e-06
-9.28531e-06
1.41642e-05
-1.82173e-06
-2.5925e-05
2.68225e-05
-1.77575e-06
-4.47201e-05
3.04495e-05
-1.57558e-06
-6.36256e-05
3.06798e-05
-1.37383e-06
-8.18601e-05
2.97188e-05
-1.26899e-06
-9.89847e-05
2.81578e-05
-1.24601e-06
-0.0001146
2.6047e-05
-1.29586e-06
-0.000128268
2.33016e-05
-1.42445e-06
-0.000139485
1.98057e-05
-1.64334e-06
-0.000147685
1.54341e-05
-1.96516e-06
-0.000152235
1.00671e-05
-2.39943e-06
-0.000152496
3.65448e-06
-2.94887e-06
-0.000147843
-3.79832e-06
-3.61518e-06
-0.000137718
-1.21929e-05
-4.34825e-06
-0.000121831
-2.11415e-05
-5.09538e-06
-0.000100291
-3.00307e-05
-5.76304e-06
-7.38686e-05
-3.7794e-05
-6.20452e-06
-4.45354e-05
-4.24492e-05
-6.24292e-06
-1.66301e-05
-4.0097e-05
-5.71191e-06
-2.19572e-05
-3.4078e-06
-1.1309e-05
2.60567e-05
-2.39068e-06
-3.1042e-05
4.74935e-05
-2.49148e-06
-5.31173e-05
5.3457e-05
-2.29539e-06
-7.51951e-05
5.36361e-05
-2.04914e-06
-9.64012e-05
5.17634e-05
-1.89116e-06
-0.000116245
4.88291e-05
-1.81221e-06
-0.000134283
4.49368e-05
-1.80698e-06
-0.000150038
3.99691e-05
-1.88627e-06
-0.000162966
3.37529e-05
-2.06711e-06
-0.000172454
2.60966e-05
-2.36833e-06
-0.000177826
1.68236e-05
-2.80638e-06
-0.000178347
5.82431e-06
-3.39194e-06
-0.000173225
-6.95992e-06
-4.12091e-06
-0.000161808
-2.13056e-05
-4.95513e-06
-0.000143654
-3.66433e-05
-5.83529e-06
-0.000118757
-5.19614e-05
-6.64953e-06
-8.78789e-05
-6.54626e-05
-7.21502e-06
-5.32475e-05
-7.3732e-05
-7.30508e-06
-2.00107e-05
-7.0045e-05
-6.70701e-06
-3.9379e-05
-3.97615e-06
-1.20858e-05
3.88496e-05
-2.87688e-06
-3.32115e-05
6.9747e-05
-3.11985e-06
-5.67937e-05
7.81662e-05
-2.93692e-06
-8.03681e-05
7.82751e-05
-2.6632e-06
-0.000103052
7.54621e-05
-2.4702e-06
-0.000124372
7.11422e-05
-2.35424e-06
-0.000143901
6.54776e-05
-2.31436e-06
-0.000161175
5.83182e-05
-2.36696e-06
-0.000175656
4.94232e-05
-2.53625e-06
-0.000186709
3.85147e-05
-2.84907e-06
-0.000193594
2.53163e-05
-3.33077e-06
-0.000195471
9.62651e-06
-4.00302e-06
-0.000191395
-8.72075e-06
-4.88349e-06
-0.000180381
-2.95672e-05
-5.92448e-06
-0.000161653
-5.21522e-05
-7.06134e-06
-0.000134867
-7.50844e-05
-8.15717e-06
-0.000100608
-9.56931e-05
-8.97605e-06
-6.13165e-05
-0.00010876
-9.21226e-06
-2.30779e-05
-0.000104061
-8.56164e-06
-5.91478e-05
-5.1826e-06
-1.25755e-05
5.2279e-05
-3.33388e-06
-3.47463e-05
9.32665e-05
-3.71822e-06
-5.95249e-05
0.0001043
-3.55162e-06
-8.4349e-05
0.000104384
-3.26005e-06
-0.000108349
0.000100688
-3.04677e-06
-0.000131094
9.50848e-05
-2.91381e-06
-0.000152208
8.78028e-05
-2.86534e-06
-0.000171269
7.8658e-05
-2.92444e-06
-0.000187769
6.73326e-05
-3.12387e-06
-0.000201068
5.34308e-05
-3.50232e-06
-0.000210358
3.65214e-05
-4.0998e-06
-0.000214633
1.62177e-05
-4.95429e-06
-0.000212711
-7.81376e-06
-6.09259e-06
-0.000203171
-3.56924e-05
-7.49568e-06
-0.000184672
-6.65775e-05
-9.08577e-06
-0.000156252
-9.87659e-05
-1.06943e-05
-0.000118043
-0.000128574
-1.19988e-05
-7.26346e-05
-0.000148427
-1.25424e-05
-2.75037e-05
-0.00014344
-1.18383e-05
-8.21743e-05
-7.3729e-06
-1.31034e-05
6.64091e-05
-3.82519e-06
-3.64204e-05
0.000118192
-4.36339e-06
-6.25342e-05
0.000132035
-4.21602e-06
-8.8768e-05
0.000132161
-3.91035e-06
-0.000114274
0.000127668
-3.68339e-06
-0.000138683
0.000120932
-3.54388e-06
-0.000161696
0.000112266
-3.5025e-06
-0.000182969
0.000101455
-3.59093e-06
-0.000202058
8.80985e-05
-3.85316e-06
-0.000218353
7.16549e-05
-4.34355e-06
-0.000231002
5.14746e-05
-5.12377e-06
-0.000238835
2.68747e-05
-6.25878e-06
-0.000240388
-2.74287e-06
-7.80855e-06
-0.000233618
-3.8138e-05
-9.78946e-06
-0.000216352
-7.85567e-05
-1.21228e-05
-0.000186595
-0.000122208
-1.4606e-05
-0.000143558
-0.000164322
-1.67906e-05
-8.97096e-05
-0.000194251
-1.79614e-05
-3.44976e-05
-0.000190504
-1.72494e-05
-0.000110379
-1.1032e-05
-1.37491e-05
8.13931e-05
-4.40503e-06
-3.84292e-05
0.000144793
-5.12538e-06
-6.61116e-05
0.000161658
-4.9993e-06
-9.39776e-05
0.000161877
-4.67553e-06
-0.000121208
0.000156664
-4.43056e-06
-0.000147519
0.000148963
-4.28189e-06
-0.000172721
0.000139194
-4.24904e-06
-0.000196594
0.000127135
-4.37511e-06
-0.000218816
0.000112304
-4.7196e-06
-0.000238873
9.40014e-05
-5.3591e-06
-0.000255946
7.13049e-05
-6.38745e-06
-0.000268753
4.31104e-05
-7.91278e-06
-0.000275497
8.33193e-06
-1.00384e-05
-0.000273497
-3.46403e-05
-1.29114e-05
-0.000259342
-8.5796e-05
-1.64255e-05
-0.000229402
-0.000143628
-2.03809e-05
-0.000181109
-0.000202469
-2.4161e-05
-0.000116037
-0.000247851
-2.66276e-05
-4.6071e-05
-0.00024866
-2.61059e-05
-0.0001474
-1.71244e-05
-1.45314e-05
9.7418e-05
-5.11893e-06
-4.082e-05
0.00017339
-6.06417e-06
-7.03047e-05
0.000193475
-5.95845e-06
-9.99908e-05
0.000193784
-5.603e-06
-0.000129096
0.000187884
-5.32307e-06
-0.000157449
0.000179362
-5.14802e-06
-0.000185011
0.000168795
-5.10924e-06
-0.000211745
0.000155987
-5.26469e-06
-0.000237534
0.000140409
-5.69446e-06
-0.000262073
0.000121214
-6.50597e-06
-0.000284708
9.71873e-05
-7.84017e-06
-0.000304215
6.67112e-05
-9.86874e-06
-0.000318454
2.78447e-05
-1.27881e-05
-0.000324272
-2.18532e-05
-1.69158e-05
-0.000316656
-8.44129e-05
-2.22826e-05
-0.000289533
-0.000159278
-2.86884e-05
-0.000237119
-0.000240713
-3.53566e-05
-0.000158325
-0.000310074
-4.05067e-05
-6.67549e-05
-0.000322863
-4.08385e-05
-0.000201059
-2.76172e-05
-1.54785e-05
0.000114719
-6.01776e-06
-4.36465e-05
0.000204354
-7.24646e-06
-7.51511e-05
0.0002278
-7.15481e-06
-0.000106781
0.000228091
-6.74115e-06
-0.000137803
0.000221436
-6.39279e-06
-0.000168185
0.00021217
-6.15521e-06
-0.000198088
0.000201083
-6.07533e-06
-0.000227727
0.00018807
-6.22949e-06
-0.000257295
0.000172622
-6.72348e-06
-0.000286845
0.00015381
-7.70531e-06
-0.000316107
0.00013017
-9.38278e-06
-0.000344168
9.95446e-05
-1.2041e-05
-0.000368939
5.89598e-05
-1.60654e-05
-0.000387139
4.96097e-06
-2.19e-05
-0.000391912
-6.81653e-05
-2.99593e-05
-0.00037418
-0.000161824
-4.03024e-05
-0.000322895
-0.000272418
-5.21078e-05
-0.000230689
-0.000378415
-6.27426e-05
-0.000107673
-0.000420256
-6.59405e-05
-0.000290213
-4.67622e-05
-1.66608e-05
0.000133627
-7.17079e-06
-4.70385e-05
0.000238154
-8.76064e-06
-8.07733e-05
0.000264972
-8.66752e-06
-0.000114395
0.000264956
-8.15024e-06
-0.000147234
0.000257308
-7.67671e-06
-0.000179433
0.00024723
-7.31434e-06
-0.000211394
0.000235804
-7.12966e-06
-0.000243654
0.000223099
-7.22013e-06
-0.000276827
0.000208733
-7.72048e-06
-0.000311519
0.000191844
-8.82593e-06
-0.000348151
0.000170883
-1.08267e-05
-0.000386617
0.000143305
-1.4152e-05
-0.000425681
0.000105173
-1.93931e-05
-0.000461797
5.08819e-05
-2.72741e-05
-0.000488661
-2.73044e-05
-3.91945e-05
-0.000493613
-0.000137572
-5.55928e-05
-0.000458346
-0.000281554
-7.60108e-05
-0.000362377
-0.00044119
-9.70524e-05
-0.000196426
-0.000549954
-0.000107838
-0.000462319
-8.26205e-05
-1.82269e-05
0.000154664
-8.68231e-06
-5.12675e-05
0.000275431
-1.07346e-05
-8.74578e-05
0.000305391
-1.0609e-05
-0.000123036
0.000304486
-9.91427e-06
-0.000157425
0.000295342
-9.22525e-06
-0.00019098
0.000284151
-8.63922e-06
-0.000224379
0.000272362
-8.247e-06
-0.000258524
0.000260311
-8.16755e-06
-0.000294537
0.000247897
-8.56294e-06
-0.000333757
0.000234553
-9.67439e-06
-0.000377656
0.000218986
-1.18792e-05
-0.000427581
0.000198701
-1.57752e-05
-0.00048416
0.0001693
-2.2286e-05
-0.000546031
0.000123552
-3.27494e-05
-0.000608844
5.10923e-05
-4.8728e-05
-0.000660046
-6.35156e-05
-7.27867e-05
-0.000672708
-0.000237638
-0.000104836
-0.000599076
-0.000475162
-0.000139953
-0.000376304
-0.000732362
-0.000161801
-0.000818179
-0.000137723
-2.04659e-05
0.000178691
-1.07182e-05
-5.68408e-05
0.000317118
-1.33653e-05
-9.57517e-05
0.00034956
-1.31532e-05
-0.000133156
0.000346748
-1.21633e-05
-0.000168634
0.00033522
-1.11168e-05
-0.000202801
0.000322276
-1.01551e-05
-0.000236631
0.000309773
-9.40023e-06
-0.000271388
0.000298387
-8.98948e-06
-0.00030871
0.000288451
-9.10266e-06
-0.000350757
0.000279997
-1.001e-05
-0.000400361
0.000272521
-1.21506e-05
-0.000461091
0.000264449
-1.62596e-05
-0.000537045
0.000252196
-2.35441e-05
-0.000632041
0.000228626
-3.5784e-05
-0.000747103
0.000180942
-5.50743e-05
-0.000874983
8.51528e-05
-8.26855e-05
-0.000977189
-0.000109496
-0.000117369
-0.000950064
-0.000479803
-0.000147117
-0.000644335
-0.00103058
-0.000159984
-0.0014735
-0.000168187
-2.38921e-05
0.000207158
-1.35414e-05
-6.46254e-05
0.000364596
-1.69169e-05
-0.000106602
0.000398146
-1.64946e-05
-0.000145602
0.000391771
-1.50173e-05
-0.00018148
0.000376445
-1.34151e-05
-0.000215197
0.000360658
-1.18767e-05
-0.000248031
0.000346641
-1.0551e-05
-0.00028153
0.000335395
-9.58413e-06
-0.000317695
0.000327754
-9.1565e-06
-0.000359364
0.000324644
-9.52347e-06
-0.000410698
0.000326954
-1.10972e-05
-0.000477812
0.000335167
-1.45625e-05
-0.000569505
0.000348511
-2.0977e-05
-0.000697308
0.000362587
-3.1434e-05
-0.000872087
0.000363027
-4.52661e-05
-0.00108611
0.000303422
-5.59412e-05
-0.00127609
6.70627e-05
-4.47552e-05
-0.00127326
-0.00052966
5.9663e-06
-0.000857177
-0.00150862
4.13953e-05
-0.00237059
-9.26289e-05
-2.98841e-05
0.000242973
-1.77114e-05
-7.65416e-05
0.0004199
-2.21822e-05
-0.000121619
0.000451573
-2.14608e-05
-0.00016139
0.000439047
-1.92006e-05
-0.000196603
0.000418183
-1.66249e-05
-0.000228652
0.000398218
-1.4073e-05
-0.000258909
0.000381433
-1.17786e-05
-0.000288936
0.000369059
-9.9116e-06
-0.000320831
0.0003625
-8.61132e-06
-0.000357663
0.000363668
-8.04692e-06
-0.000404348
0.000375263
-8.45213e-06
-0.000468804
0.000400646
-1.00748e-05
-0.000563633
0.00044335
-1.27572e-05
-0.000705249
0.000501636
-1.39005e-05
-0.000907943
0.000555089
-2.23815e-06
-0.00115785
0.000518869
5.15336e-05
-0.00138825
0.000211865
0.000188543
-0.00139198
-0.000663034
0.000386293
-0.000893875
-0.00207845
0.000391507
-0.00325114
-9.76808e-06
-3.74331e-05
0.000288093
-2.35816e-05
-9.19874e-05
0.000485754
-2.86149e-05
-0.000141701
0.000512115
-2.70958e-05
-0.000183342
0.000490297
-2.34794e-05
-0.000217411
0.000460421
-1.96518e-05
-0.000246097
0.000433561
-1.58986e-05
-0.000271336
0.000411844
-1.24556e-05
-0.000294769
0.00039625
-9.45621e-06
-0.000318065
0.000388208
-6.97591e-06
-0.000343495
0.00039014
-5.02314e-06
-0.000375218
0.000406454
-3.40807e-06
-0.000420238
0.000442868
-1.30389e-06
-0.000491442
0.000507566
4.15568e-06
-0.000605414
0.000599286
2.31801e-05
-0.00078093
0.000692844
8.40657e-05
-0.00101002
0.000664781
0.00024125
-0.00126382
0.000311709
0.000532178
-0.00129656
-0.000794107
0.000777862
-0.000810362
-0.00253225
0.000526277
-0.00398073
-0.000101931
-7.05218e-05
0.000368104
-3.35056e-05
-0.000131638
0.000560529
-4.10935e-05
-0.000177369
0.000571004
-3.83707e-05
-0.000211179
0.000535807
-3.28778e-05
-0.000238674
0.00049785
-2.64897e-05
-0.00026183
0.000464691
-2.01531e-05
-0.000281457
0.00043741
-1.43261e-05
-0.000297708
0.000416413
-9.23228e-06
-0.000310856
0.000403247
-4.89114e-06
-0.000321102
0.000400124
-1.1087e-06
-0.000329965
0.000412436
2.70436e-06
-0.000340269
0.000446176
8.79247e-06
-0.000361192
0.000513758
2.32819e-05
-0.00040292
0.000611248
6.35958e-05
-0.000496354
0.000726995
0.000169252
-0.000642866
0.000703348
0.000398308
-0.000863754
0.000371605
0.000744231
-0.000938278
-0.000833218
0.000875725
-0.00059699
-0.00274968
0.000337111
-0.00450946
-0.00028362
-5.04718e-05
0.000429923
-5.08176e-05
-0.000142388
0.000671609
-5.6567e-05
-0.000208766
0.000655334
-5.03457e-05
-0.000252721
0.00059595
-3.97826e-05
-0.000280191
0.000538848
-3.01482e-05
-0.000296166
0.00049128
-2.09073e-05
-0.000303915
0.00045279
-1.259e-05
-0.000304761
0.000421864
-5.34869e-06
-0.000298945
0.00039922
7.40151e-07
-0.000284492
0.000384602
5.75937e-06
-0.000260136
0.000383176
1.08658e-05
-0.000221277
0.000396956
1.89093e-05
-0.000167975
0.000440808
3.6892e-05
-0.000100326
0.000508075
8.31884e-05
-3.56586e-05
0.000602218
0.000192596
-3.82819e-05
0.000610261
0.000410933
-0.000122756
0.000345113
0.000697088
-0.000288833
-0.000716874
0.000704264
-0.000190287
-0.0027251
0.000138254
-0.00469113
-0.000425884
-0.000196039
0.00063659
-6.07811e-05
-0.000238953
0.000731843
-7.73074e-05
-0.000274551
0.000709544
-7.38121e-05
-0.000302181
0.0006408
-6.0523e-05
-0.000305804
0.000557939
-4.38572e-05
-0.000292073
0.000490493
-2.79569e-05
-0.000266684
0.000437042
-1.41583e-05
-0.000231103
0.000392378
-2.86137e-06
-0.000187767
0.000358776
5.69084e-06
-0.000133961
0.00033028
1.213e-05
-6.94891e-05
0.000314099
1.66756e-05
1.25957e-05
0.000304513
2.19403e-05
0.000119886
0.000315504
3.27505e-05
0.000259222
0.000337923
6.12127e-05
0.000439548
0.000377989
0.000129617
0.000618705
0.000373322
0.000272963
0.000783228
0.000142637
0.000418068
0.000673147
-0.000595349
0.000434548
0.000441939
-0.0024156
5.54144e-05
-0.00432253
-0.000502504
-0.000666175
0.00129086
-0.000152003
-0.000628642
0.000713524
-0.000134014
-0.000492804
0.000595885
-0.000104893
-0.000303598
0.000477714
-7.79876e-05
-0.000105418
0.000385751
-5.71355e-05
8.97561e-05
0.000318733
-3.83875e-05
0.000274579
0.00027188
-2.20462e-05
0.000448445
0.00023432
-8.16181e-06
0.000611182
0.000207919
3.32093e-06
0.000764843
0.000184463
1.16099e-05
0.000912716
0.000169887
1.68794e-05
0.00105828
0.000157707
1.87087e-05
0.00121494
0.000152273
1.96356e-05
0.00138731
0.000151668
2.37936e-05
0.00161447
0.000135461
3.02339e-05
0.00186509
0.00010205
9.1314e-05
0.00209191
-8.52972e-05
0.00012083
0.00208537
-0.000529078
0.000116924
0.00141032
-0.00170019
-3.28551e-06
-0.00310331
-0.000536722
0.00127056
-0.000127118
0.00197281
-0.00014502
0.00256313
-0.000147083
0.00304358
-0.000139271
0.0034393
-0.000127485
0.00377203
-0.000115132
0.00406095
-0.000102632
0.00431328
-9.01073e-05
0.00453959
-7.85111e-05
0.00474186
-6.72583e-05
0.00492722
-5.63519e-05
0.00509943
-4.90879e-05
0.00526208
-3.80163e-05
0.00542422
-3.70772e-05
0.00556622
-2.31238e-05
0.00568241
-3.03474e-05
0.00560648
-4.57641e-06
0.00510878
-5.9523e-05
0.00340402
-9.29839e-05
-0.000577907
-4.55318e-06
4.72892e-06
-9.82367e-07
-1.4654e-05
1.05959e-05
-1.03219e-06
-2.64037e-05
1.23343e-05
-9.31234e-07
-3.82818e-05
1.24895e-05
-8.38678e-07
-4.97976e-05
1.21234e-05
-8.1807e-07
-6.07296e-05
1.15254e-05
-8.66142e-07
-7.08595e-05
1.07096e-05
-9.80319e-07