/*--------------------------------*- C++ -*----------------------------------*\
  =========                 |
  \\      /  F ield         | OpenFOAM: The Open Source CFD Toolbox
   \\    /   O peration     | Website:  https://openfoam.org
    \\  /    A nd           | Version:  10
     \\/     M anipulation  |
\*---------------------------------------------------------------------------*/
FoamFile
{
    format      ascii;
    class       surfaceScalarField;
    location    "5";
    object      phi;
}
// * * * * * * * * * * * * * * * * * * * * * * * * * * * * * * * * * * * * * //

dimensions      [0 3 -1 0 0 0 0];

internalField   nonuniform List<scalar> 
760
(
-8.51903e-06
8.51902e-06
-2.82629e-05
1.97439e-05
-5.11885e-05
2.29256e-05
-7.42751e-05
2.30866e-05
-9.658e-05
2.23049e-05
-0.000117659
2.10794e-05
-0.000137082
1.94223e-05
-0.000154322
1.72399e-05
-0.000168743
1.44218e-05
-0.000179602
1.08586e-05
-0.000186058
6.456e-06
-0.000187224
1.16605e-06
-0.000182169
-5.05506e-06
-0.000170145
-1.20241e-05
-0.000150681
-1.9464e-05
-0.000123808
-2.68732e-05
-9.04309e-05
-3.33768e-05
-5.31044e-05
-3.73264e-05
-1.80359e-05
-3.50686e-05
-1.80359e-05
-2.06248e-05
2.91438e-05
-5.82473e-05
5.73664e-05
-0.000100362
6.50406e-05
-0.000142252
6.49764e-05
-0.000182195
6.22478e-05
-0.000219236
5.81201e-05
-0.000252516
5.27023e-05
-0.000281118
4.58425e-05
-0.000304032
3.73355e-05
-0.000320146
2.69722e-05
-0.000328222
1.45325e-05
-0.000327207
1.51432e-07
-0.000315732
-1.65306e-05
-0.000292923
-3.48331e-05
-0.000258291
-5.40955e-05
-0.000212105
-7.30597e-05
-0.000155901
-8.95811e-05
-9.36574e-05
-9.95696e-05
-3.45135e-05
-9.42125e-05
-5.25494e-05
-2.52223e-05
5.43661e-05
-6.98321e-05
0.000101976
-0.000119262
0.000114471
-0.000168157
0.000113871
-0.000214595
0.000108686
-0.000257508
0.000101033
-0.000295943
9.11376e-05
-0.0003289
7.8799e-05
-0.000355285
6.3721e-05
-0.000373902
4.55887e-05
-0.000383506
2.41368e-05
-0.000382612
-7.42672e-07
-0.000369855
-2.92874e-05
-0.000344042
-6.06463e-05
-0.000304423
-9.37147e-05
-0.000251046
-0.000126436
-0.000185439
-0.000155188
-0.000112074
-0.000172935
-4.16929e-05
-0.000164594
-9.42423e-05
-2.70029e-05
8.1369e-05
-7.48374e-05
0.000149811
-0.000127722
0.000167355
-0.000180011
0.00016616
-0.000229765
0.00015844
-0.000275943
0.000147211
-0.000317619
0.000132814
-0.000353815
0.000114995
-0.000383436
9.33419e-05
-0.000405235
6.73874e-05
-0.000417789
3.66906e-05
-0.000419632
1.10095e-06
-0.000408736
-4.01835e-05
-0.000383455
-8.59271e-05
-0.000342349
-0.000134821
-0.000284822
-0.000183964
-0.000212076
-0.000227934
-0.00012897
-0.000256041
-4.81178e-05
-0.000245446
-0.00014236
-2.82635e-05
0.000109633
-7.87212e-05
0.000200268
-0.000134555
0.000223189
-0.000189873
0.000221478
-0.000242755
0.000211322
-0.000292238
0.000196693
-0.000337484
0.00017806
-0.000377589
0.000155101
-0.000411504
0.000127256
-0.000437955
9.3839e-05
-0.000455389
5.41241e-05
-0.000461863
7.57571e-06
-0.000455121
-4.69258e-05
-0.000432482
-0.000108567
-0.000391415
-0.000175888
-0.000330093
-0.000245285
-0.000248816
-0.000309211
-0.000152804
-0.000352053
-5.74359e-05
-0.000340814
-0.000199796
-2.97082e-05
0.000139341
-8.31724e-05
0.000253733
-0.000142428
0.000282445
-0.000201288
0.000280337
-0.000257865
0.0002679
-0.000311313
0.000250141
-0.000360933
0.00022768
-0.000405961
0.000200128
-0.000445454
0.000166749
-0.000478178
0.000126563
-0.000502463
7.84093e-05
-0.000516043
2.11559e-05
-0.000516054
-4.69145e-05
-0.000498584
-0.000126037
-0.000459435
-0.000215037
-0.000394714
-0.000310006
-0.000302839
-0.000401087
-0.000188871
-0.00046602
-7.21594e-05
-0.000457526
-0.000271955
-3.14933e-05
0.000170834
-8.85834e-05
0.000310823
-0.000151924
0.000345786
-0.000214968
0.000343381
-0.000275875
0.000328807
-0.000333962
0.000308228
-0.000388737
0.000282455
-0.000439664
0.000251054
-0.000486023
0.000213108
-0.000526746
0.000167286
-0.000560188
0.000111851
-0.00058384
4.48077e-05
-0.00059426
-3.64939e-05
-0.00058598
-0.000134317
-0.000552454
-0.000248563
-0.00048645
-0.00037601
-0.000382726
-0.000504811
-0.000244547
-0.000604199
-9.63938e-05
-0.000605679
-0.000368349
-3.36492e-05
0.000204483
-9.50368e-05
0.00037221
-0.000163125
0.000413874
-0.000230927
0.000411183
-0.000296674
0.000394554
-0.000359902
0.000371456
-0.000420413
0.000342966
-0.000478021
0.000308662
-0.000532397
0.000267484
-0.000582857
0.000217746
-0.000628047
0.000157042
-0.000665465
8.22253e-05
-0.000691384
-1.05743e-05
-0.000698666
-0.000127035
-0.000677748
-0.000269482
-0.000616342
-0.000437415
-0.000502527
-0.000618626
-0.000333893
-0.000772834
-0.000139234
-0.000800337
-0.000507584
-3.62206e-05
0.000240704
-0.00010262
0.000438609
-0.00017608
0.000487334
-0.00024909
0.000484193
-0.000319978
0.000465443
-0.00038857
0.000440047
-0.00045506
0.000409456
-0.000519764
0.000373367
-0.000582962
0.000330682
-0.00064467
0.000279454
-0.000704277
0.000216649
-0.000759909
0.000137857
-0.000807797
3.73136e-05
-0.000840405
-9.4427e-05
-0.000844442
-0.000265444
-0.000800964
-0.000480894
-0.000686924
-0.000732665
-0.000486508
-0.00097325
-0.000222675
-0.00106417
-0.000730259
-3.93259e-05
0.00028003
-0.000111549
0.000510833
-0.000190975
0.00056676
-0.000269482
0.000562701
-0.000345538
0.000541498
-0.000419329
0.000513838
-0.00049155
0.000481678
-0.000563175
0.000444992
-0.000635342
0.000402849
-0.000709184
0.000353296
-0.000785475
0.000292939
-0.000863924
0.000216307
-0.000941678
0.000115068
-0.00101316
-2.29464e-05
-0.00106275
-0.000215854
-0.00106481
-0.000478831
-0.000980417
-0.000817061
-0.000764975
-0.00118869
-0.000399706
-0.00142944
-0.00112997
-4.3222e-05
0.000323252
-0.00012229
0.000589901
-0.000208271
0.00065274
-0.000292373
0.000646802
-0.000373274
0.000622399
-0.000451606
0.000592171
-0.000528652
0.000558724
-0.000606155
0.000522494
-0.000686326
0.00048302
-0.000771824
0.000438794
-0.000865585
0.000386699
-0.000970309
0.000321031
-0.00108717
0.000231927
-0.00121385
0.000103731
-0.00134092
-8.87809e-05
-0.00144038
-0.000379372
-0.00145444
-0.000802994
-0.00127686
-0.00136628
-0.000767982
-0.00193832
-0.00189795
-4.84148e-05
0.000371666
-0.000135724
0.00067721
-0.000228869
0.000745885
-0.000318427
0.00073636
-0.000403433
0.000707405
-0.000485066
0.000673804
-0.00056524
0.000638898
-0.00064649
0.000603744
-0.00073217
0.0005687
-0.000826753
0.000533377
-0.000936145
0.000496091
-0.0010678
0.000452685
-0.0012302
0.000394329
-0.00143057
0.000304103
-0.0016738
0.000154444
-0.00194772
-0.000105452
-0.00216867
-0.000582042
-0.00209199
-0.00144295
-0.00134254
-0.00268776
-0.00324049
-5.58538e-05
0.00042752
-0.000153414
0.000774771
-0.000254353
0.000846824
-0.000348926
0.000830933
-0.000436781
0.00079526
-0.000519807
0.00075683
-0.00060056
0.000719651
-0.000682187
0.000685372
-0.00076892
0.000655433
-0.000866818
0.000631275
-0.000984817
0.00061409
-0.0011362
0.000604069
-0.00134042
0.000598552
-0.00162456
0.00058824
-0.00201853
0.000548416
-0.00252091
0.000396929
-0.0029902
-0.000112752
-0.00294764
-0.00148552
-0.00184522
-0.00379019
-0.00508571
-6.78391e-05
0.000495359
-0.000178634
0.000885566
-0.000287342
0.000955531
-0.000385386
0.000928978
-0.00047417
0.000884044
-0.000556338
0.000838998
-0.000634627
0.00079794
-0.000712356
0.000763101
-0.00079409
0.000737167
-0.000886654
0.000723839
-0.001001
0.000728437
-0.00115523
0.000758294
-0.0013793
0.000822625
-0.00171672
0.000925666
-0.00221326
0.00104495
-0.00284143
0.0010251
-0.0033627
0.000408519
-0.00320753
-0.00164068
-0.00194343
-0.00505429
-0.00702914
-8.25885e-05
0.000577948
-0.000210202
0.00101318
-0.000329432
0.00107476
-0.000433141
0.00103269
-0.000521742
0.000972645
-0.000599487
0.000916743
-0.000670352
0.000868805
-0.000737867
0.000830616
-0.000805721
0.000805021
-0.000879071
0.00079719
-0.000967469
0.000816835
-0.00108788
0.000878705
-0.00127186
0.0010066
-0.00156139
0.0012152
-0.00199557
0.00147913
-0.00249748
0.00152701
-0.00288172
0.000792755
-0.00270384
-0.00181856
-0.00174264
-0.00601548
-0.00877178
-0.000147786
0.000725734
-0.000288659
0.00115405
-0.000399164
0.00118527
-0.000488061
0.00112158
-0.00056575
0.00105033
-0.000635657
0.00098665
-0.000698899
0.000932047
-0.000755662
0.000887379
-0.000806484
0.000855842
-0.000852026
0.000842732
-0.000895069
0.000859878
-0.000941354
0.000924989
-0.00100695
0.0010722
-0.00110191
0.00131015
-0.001255
0.00163222
-0.00140181
0.00167382
-0.00154877
0.00093972
-0.00158728
-0.00178005
-0.00121442
-0.00638835
-0.0099862
-9.82424e-05
0.000823977
-0.000303049
0.00135886
-0.000458336
0.00134055
-0.000571383
0.00123463
-0.000652469
0.00113142
-0.000711177
0.00104536
-0.000753181
0.000974051
-0.000780819
0.000915017
-0.000793951
0.000868974
-0.000788082
0.000836863
-0.000757396
0.000829192
-0.000688475
0.000856069
-0.000571671
0.000955397
-0.000382555
0.00112104
-0.000124758
0.00137442
0.000104907
0.00144416
0.00021487
0.000829757
-0.000110796
-0.00145438
-0.000252371
-0.00624678
-0.0102386
-0.000389331
0.00121331
-0.000485104
0.00145463
-0.000579043
0.00143449
-0.00066556
0.00132115
-0.000708502
0.00117436
-0.000715813
0.00105267
-0.000695756
0.000953994
-0.000650722
0.000869983
-0.000585534
0.000803786
-0.000493881
0.00074521
-0.000372855
0.000708167
-0.000202713
0.000685927
4.49136e-05
0.00070777
0.000393157
0.000772794
0.000887458
0.000880119
0.00143205
0.000899565
0.00192532
0.000336486
0.0017517
-0.00128076
0.000941081
-0.00543616
-0.00929749
-0.00134366
0.00255696
-0.00130302
0.00141399
-0.00105963
0.0011911
-0.000709054
0.000970575
-0.000336296
0.000801601
3.73638e-05
0.000679011
0.000399136
0.000592221
0.000744301
0.000524819
0.00107389
0.000474192
0.00138977
0.000429329
0.00169868
0.000399259
0.00201001
0.000374599
0.0023542
0.000363583
0.00275613
0.000370857
0.00329891
0.000337346
0.0039302
0.000268269
0.00443369
-0.000167
0.00435357
-0.00120065
0.00268963
-0.00377222
-0.00660786
0.00255696
0.00397096
0.00516206
0.00613263
0.00693424
0.00761325
0.00820547
0.00873029
0.00920448
0.00963381
0.0100331
0.0104077
0.0107712
0.0111421
0.0114795
0.0117477
0.0115807
0.0103801
0.00660786
)
;

boundaryField
{
    movingWall
    {
        type            calculated;
        value           uniform 0;
    }
    fixedWalls
    {
        type            calculated;
        value           uniform 0;
    }
    frontAndBack
    {
        type            empty;
        value           nonuniform List<scalar> 0();
    }
}


// ************************************************************************* //
