/*--------------------------------*- C++ -*----------------------------------*\
  =========                 |
  \\      /  F ield         | OpenFOAM: The Open Source CFD Toolbox
   \\    /   O peration     | Website:  https://openfoam.org
    \\  /    A nd           | Version:  10
     \\/     M anipulation  |
\*---------------------------------------------------------------------------*/
FoamFile
{
    format      ascii;
    class       volVectorField;
    location    "5";
    object      U;
}
// * * * * * * * * * * * * * * * * * * * * * * * * * * * * * * * * * * * * * //

dimensions      [0 1 -1 0 0 0 0];

internalField   nonuniform List<vector> 
400
(
(-9.08264e-05 8.50841e-05 0)
(-0.000800102 0.000308394 0)
(-0.00199208 0.000375427 0)
(-0.00314475 0.000383913 0)
(-0.0042849 0.000377213 0)
(-0.00537468 0.000365133 0)
(-0.0063918 0.000346967 0)
(-0.00731329 0.000319847 0)
(-0.00811037 0.000280655 0)
(-0.0087485 0.000226312 0)
(-0.00918785 0.000154214 0)
(-0.0093851 6.33249e-05 0)
(-0.00929402 -4.95084e-05 0)
(-0.00887144 -0.000180943 0)
(-0.00808574 -0.000325479 0)
(-0.00692242 -0.000472942 0)
(-0.0054023 -0.000604962 0)
(-0.00362597 -0.000687252 0)
(-0.00161442 -0.000641338 0)
(-0.000267342 -0.00028871 0)
(-0.000332135 0.000807314 0)
(-0.00179177 0.00172828 0)
(-0.00397716 0.00198659 0)
(-0.00608661 0.00199469 0)
(-0.00814357 0.00192089 0)
(-0.0100787 0.00180638 0)
(-0.0118459 0.00165325 0)
(-0.0134021 0.00145493 0)
(-0.0146996 0.00120331 0)
(-0.015685 0.000890365 0)
(-0.0162995 0.000509081 0)
(-0.0164855 5.40291e-05 0)
(-0.016181 -0.00047139 0)
(-0.0153285 -0.00105571 0)
(-0.0138921 -0.00167476 0)
(-0.0118609 -0.00228719 0)
(-0.0092791 -0.00282196 0)
(-0.0062982 -0.00314472 0)
(-0.00296541 -0.0029623 0)
(-0.000596704 -0.00158423 0)
(-0.000420916 0.00207472 0)
(-0.00217283 0.00395668 0)
(-0.00474436 0.00445935 0)
(-0.00721275 0.00444427 0)
(-0.00960914 0.00424775 0)
(-0.0118552 0.00395403 0)
(-0.0138994 0.00357161 0)
(-0.0156945 0.00309188 0)
(-0.0171885 0.00250254 0)
(-0.0183243 0.00179094 0)
(-0.0190409 0.000946306 0)
(-0.0192695 -3.78565e-05 0)
(-0.0189376 -0.00115672 0)
(-0.0179797 -0.00238638 0)
(-0.0163452 -0.00367896 0)
(-0.0140099 -0.00495092 0)
(-0.0110107 -0.00605979 0)
(-0.00751471 -0.00673347 0)
(-0.00356946 -0.00638753 0)
(-0.000731324 -0.00362414 0)
(-0.000448775 0.00337923 0)
(-0.00232801 0.00626716 0)
(-0.0050838 0.00701506 0)
(-0.00772239 0.00697024 0)
(-0.010287 0.00664788 0)
(-0.0126978 0.00617566 0)
(-0.0149047 0.00556769 0)
(-0.016862 0.00481257 0)
(-0.0185182 0.00389273 0)
(-0.019815 0.00278888 0)
(-0.0206863 0.00148366 0)
(-0.0210599 -3.27214e-05 0)
(-0.020847 -0.00175805 0)
(-0.0199542 -0.0036662 0)
(-0.0183017 -0.00569034 0)
(-0.0158301 -0.00770626 0)
(-0.012548 -0.00949137 0)
(-0.0086294 -0.0106088 0)
(-0.00412039 -0.0101302 0)
(-0.000844755 -0.00584541 0)
(-0.000464578 0.00475869 0)
(-0.00244224 0.00871916 0)
(-0.00535304 0.00972653 0)
(-0.00813983 0.0096536 0)
(-0.0108584 0.00920677 0)
(-0.0134297 0.00855967 0)
(-0.0158081 0.00773235 0)
(-0.0179522 0.00671019 0)
(-0.0198138 0.00546893 0)
(-0.0213351 0.00397985 0)
(-0.0224465 0.00221381 0)
(-0.0230615 0.00014759 0)
(-0.0230744 -0.0022227 0)
(-0.0223602 -0.00488024 0)
(-0.0207858 -0.00774785 0)
(-0.0182309 -0.0106633 0)
(-0.0146428 -0.0133096 0)
(-0.0101872 -0.0150369 0)
(-0.00491231 -0.0144783 0)
(-0.00101516 -0.00844688 0)
(-0.000482813 0.00620504 0)
(-0.00257285 0.0113112 0)
(-0.00566215 0.0125972 0)
(-0.00862168 0.0125015 0)
(-0.011521 0.0119367 0)
(-0.0142832 0.011126 0)
(-0.0168692 0.0100961 0)
(-0.0192451 0.00882896 0)
(-0.0213691 0.007292 0)
(-0.0231875 0.00544352 0)
(-0.024629 0.00323635 0)
(-0.025597 0.000625322 0)
(-0.0259644 -0.00242183 0)
(-0.0255609 -0.00590974 0)
(-0.0241812 -0.00976893 0)
(-0.0216093 -0.0138081 0)
(-0.0176814 -0.0176008 0)
(-0.0125127 -0.0202187 0)
(-0.00614405 -0.0196936 0)
(-0.00129992 -0.0116221 0)
(-0.00050628 0.00773088 0)
(-0.00273307 0.0140672 0)
(-0.00603649 0.0156539 0)
(-0.00920106 0.0155415 0)
(-0.0123128 0.0148667 0)
(-0.0152979 0.0139072 0)
(-0.0181272 0.0126982 0)
(-0.020778 0.0112184 0)
(-0.0232203 0.00942594 0)
(-0.0254105 0.0072626 0)
(-0.0272824 0.00465552 0)
(-0.0287349 0.0015238 0)
(-0.0296234 -0.00220905 0)
(-0.0297265 -0.00660064 0)
(-0.0287431 -0.0116238 0)
(-0.0263149 -0.0170881 0)
(-0.0220881 -0.0224539 0)
(-0.0160264 -0.0264317 0)
(-0.00812566 -0.0261809 0)
(-0.00180397 -0.0157145 0)
(-0.000535269 0.00935472 0)
(-0.0029258 0.0170207 0)
(-0.00648103 0.0189313 0)
(-0.00988093 0.0188055 0)
(-0.0132319 0.0180269 0)
(-0.0164644 0.0169344 0)
(-0.0195629 0.0155742 0)
(-0.0225214 0.0139239 0)
(-0.0253286 0.0119331 0)
(-0.0279611 0.00952503 0)
(-0.0303704 0.00659487 0)
(-0.0324637 0.00301136 0)
(-0.034092 -0.00137519 0)
(-0.0349904 -0.00670564 0)
(-0.0347466 -0.0130662 0)
(-0.0328051 -0.0203311 0)
(-0.02851 -0.027884 0)
(-0.0214676 -0.0339906 0)
(-0.0115151 -0.0345393 0)
(-0.00277914 -0.0213474 0)
(-0.000570679 0.0110961 0)
(-0.00315474 0.0202064 0)
(-0.00700037 0.0224619 0)
(-0.0106614 0.0223197 0)
(-0.0142697 0.0214383 0)
(-0.0177618 0.0202263 0)
(-0.0211399 0.0187456 0)
(-0.0244205 0.0169768 0)
(-0.0276205 0.0148639 0)
(-0.03075 0.0123138 0)
(-0.0337972 0.00918717 0)
(-0.0367063 0.00528974 0)
(-0.0393443 0.0003707 0)
(-0.0414414 -0.00584228 0)
(-0.0424945 -0.0136468 0)
(-0.0417046 -0.0231116 0)
(-0.0379855 -0.0336755 0)
(-0.0302494 -0.0431424 0)
(-0.0178427 -0.0456651 0)
(-0.00486677 -0.0297849 0)
(-0.000615442 0.0129781 0)
(-0.00342911 0.0236619 0)
(-0.00760635 0.0262761 0)
(-0.0115491 0.0261029 0)
(-0.0154219 0.0251097 0)
(-0.019169 0.0237854 0)
(-0.0228147 0.0222136 0)
(-0.0264046 0.0203843 0)
(-0.0299931 0.0182444 0)
(-0.0336397 0.0156924 0)
(-0.0373968 0.0125617 0)
(-0.0412837 0.00859598 0)
(-0.0452344 0.00342724 0)
(-0.049057 -0.00343485 0)
(-0.052248 -0.0125757 0)
(-0.0538199 -0.024503 0)
(-0.0521914 -0.0390076 0)
(-0.0451315 -0.0536767 0)
(-0.0305807 -0.0607644 0)
(-0.00965181 -0.0437696 0)
(-0.000676318 0.0150327 0)
(-0.00376845 0.0274323 0)
(-0.00832479 0.0304035 0)
(-0.0125639 0.0301653 0)
(-0.0166944 0.0290346 0)
(-0.0206709 0.027592 0)
(-0.0245435 0.0259502 0)
(-0.0283916 0.0241175 0)
(-0.0323145 0.022056 0)
(-0.0364354 0.0196739 0)
(-0.0408977 0.016799 0)
(-0.0458492 0.0131355 0)
(-0.0514025 0.0082005 0)
(-0.0575584 0.00125608 0)
(-0.0640523 -0.00865734 0)
(-0.0700423 -0.0227086 0)
(-0.0736093 -0.0416658 0)
(-0.0707928 -0.0639234 0)
(-0.0557696 -0.081152 0)
(-0.0199467 -0.0691748 0)
(-0.000767391 0.0173104 0)
(-0.0042103 0.0315777 0)
(-0.00920435 0.0348758 0)
(-0.0137471 0.0345079 0)
(-0.0181119 0.0331877 0)
(-0.0222669 0.0315998 0)
(-0.0262919 0.0298921 0)
(-0.030301 0.0281001 0)
(-0.0344395 0.0262174 0)
(-0.0389006 0.02419 0)
(-0.0439424 0.0218855 0)
(-0.0499015 0.0190339 0)
(-0.0571824 0.0151268 0)
(-0.0661935 0.00927946 0)
(-0.0773174 0.00010771 0)
(-0.090646 -0.0143833 0)
(-0.104403 -0.0369537 0)
(-0.111255 -0.0700566 0)
(-0.0963032 -0.109293 0)
(-0.0350784 -0.117616 0)
(-0.000917062 0.0198875 0)
(-0.00482313 0.0361571 0)
(-0.0103298 0.0396863 0)
(-0.0151729 0.0390804 0)
(-0.0197272 0.0374988 0)
(-0.0239804 0.0357239 0)
(-0.0280462 0.0339328 0)
(-0.0320687 0.0321961 0)
(-0.0362271 0.0305579 0)
(-0.0407702 0.0290356 0)
(-0.0460596 0.0275975 0)
(-0.0526333 0.0261079 0)
(-0.0612854 0.0242174 0)
(-0.0731521 0.0211748 0)
(-0.0898405 0.0155532 0)
(-0.113115 0.0043813 0)
(-0.140862 -0.0194377 0)
(-0.157644 -0.070682 0)
(-0.135738 -0.154042 0)
(-0.0431741 -0.200551 0)
(-0.00119395 0.0229646 0)
(-0.00576847 0.0415043 0)
(-0.0118604 0.0451901 0)
(-0.0169449 0.0442133 0)
(-0.0215988 0.0421775 0)
(-0.0258464 0.0400307 0)
(-0.0298222 0.0380184 0)
(-0.0336776 0.0362581 0)
(-0.0376016 0.0348514 0)
(-0.0418632 0.0339175 0)
(-0.0468778 0.0336074 0)
(-0.0533228 0.0340788 0)
(-0.06232 0.0354354 0)
(-0.0756516 0.0374996 0)
(-0.0960846 0.0391527 0)
(-0.126263 0.0350096 0)
(-0.161851 0.00818831 0)
(-0.177153 -0.0774904 0)
(-0.145149 -0.224088 0)
(-0.0406776 -0.306793 0)
(-0.00158535 0.0267841 0)
(-0.00689528 0.0466259 0)
(-0.0138177 0.0498206 0)
(-0.0192442 0.0480455 0)
(-0.0240292 0.0456185 0)
(-0.0281445 0.0433456 0)
(-0.0318144 0.0413512 0)
(-0.0352272 0.0397057 0)
(-0.0385497 0.0385451 0)
(-0.0419799 0.0381003 0)
(-0.0458418 0.0387564 0)
(-0.0507223 0.0411014 0)
(-0.0577153 0.0459472 0)
(-0.0686075 0.053812 0)
(-0.0863005 0.0635527 0)
(-0.112452 0.0647866 0)
(-0.143662 0.030138 0)
(-0.149019 -0.0921382 0)
(-0.125297 -0.290169 0)
(-0.0382261 -0.406421 0)
(-0.00361599 0.0303479 0)
(-0.011089 0.0556189 0)
(-0.017501 0.0586509 0)
(-0.022383 0.0564182 0)
(-0.0264859 0.0527634 0)
(-0.0301567 0.049286 0)
(-0.03346 0.0462867 0)
(-0.0364288 0.0439072 0)
(-0.0390761 0.0423039 0)
(-0.0414206 0.0417472 0)
(-0.0435129 0.0427815 0)
(-0.0455019 0.0463352 0)
(-0.0479462 0.0539365 0)
(-0.0513147 0.0663556 0)
(-0.0574934 0.0822476 0)
(-0.0653963 0.0846305 0)
(-0.0810895 0.0457769 0)
(-0.0777991 -0.0959761 0)
(-0.0869192 -0.32406 0)
(-0.023085 -0.487443 0)
(-0.00127998 0.0444325 0)
(-0.00904577 0.058264 0)
(-0.0204529 0.058225 0)
(-0.0258944 0.0536347 0)
(-0.0309224 0.0502868 0)
(-0.0343116 0.0476296 0)
(-0.0367816 0.0454491 0)
(-0.0384956 0.0436221 0)
(-0.0395036 0.0422896 0)
(-0.0396889 0.0416832 0)
(-0.0388055 0.0424464 0)
(-0.0362875 0.0453875 0)
(-0.0319541 0.0524071 0)
(-0.023741 0.0635753 0)
(-0.0147138 0.0790634 0)
(0.00352452 0.0820602 0)
(0.00522523 0.045803 0)
(0.015408 -0.0854311 0)
(-0.0290524 -0.325535 0)
(0.0104087 -0.524017 0)
(-0.0120963 0.0337678 0)
(-0.0248331 0.0802734 0)
(-0.025099 0.078507 0)
(-0.0321278 0.0732268 0)
(-0.0349478 0.0659731 0)
(-0.0361328 0.0596279 0)
(-0.035655 0.0542294 0)
(-0.0339296 0.0497473 0)
(-0.0311459 0.0461395 0)
(-0.0271543 0.0432758 0)
(-0.0220676 0.0415695 0)
(-0.0146256 0.0412813 0)
(-0.0055126 0.0442706 0)
(0.0103224 0.0501814 0)
(0.0285699 0.0611146 0)
(0.0619428 0.0651565 0)
(0.0752286 0.0415027 0)
(0.112021 -0.0553911 0)
(0.0526353 -0.295802 0)
(0.0561263 -0.510497 0)
(-0.0766155 0.0975284 0)
(-0.0622445 0.0603932 0)
(-0.0642907 0.060233 0)
(-0.0434585 0.0535683 0)
(-0.0265164 0.0466812 0)
(-0.0072108 0.0414809 0)
(0.0109926 0.0376722 0)
(0.0289247 0.0343175 0)
(0.0453713 0.0317816 0)
(0.0622607 0.02919 0)
(0.076696 0.0275643 0)
(0.0942893 0.0260433 0)
(0.106574 0.0257109 0)
(0.131362 0.0267602 0)
(0.142076 0.0255813 0)
(0.189696 0.0222478 0)
(0.191566 -0.0110025 0)
(0.243764 -0.0799417 0)
(0.172697 -0.268278 0)
(0.126439 -0.448105 0)
(0.120025 0.140427 0)
(0.152618 0.0860749 0)
(0.230321 0.0636395 0)
(0.285511 0.0483451 0)
(0.327258 0.0377362 0)
(0.365591 0.0300746 0)
(0.394733 0.0246223 0)
(0.426262 0.0207767 0)
(0.446091 0.0178649 0)
(0.47548 0.0156628 0)
(0.487216 0.0139985 0)
(0.51784 0.0127521 0)
(0.522122 0.0117475 0)
(0.556187 0.0113806 0)
(0.552012 0.00991899 0)
(0.589002 0.00734469 0)
(0.564114 -0.00211034 0)
(0.575325 -0.0262859 0)
(0.438367 -0.0740735 0)
(0.279106 -0.155239 0)
)
;

boundaryField
{
    movingWall
    {
        type            fixedValue;
        value           uniform (1 0 0);
    }
    fixedWalls
    {
        type            noSlip;
    }
    frontAndBack
    {
        type            empty;
    }
}


// ************************************************************************* //
