/*--------------------------------*- C++ -*----------------------------------*\
  =========                 |
  \\      /  F ield         | OpenFOAM: The Open Source CFD Toolbox
   \\    /   O peration     | Website:  https://openfoam.org
    \\  /    A nd           | Version:  10
     \\/     M anipulation  |
\*---------------------------------------------------------------------------*/
FoamFile
{
    format      ascii;
    class       surfaceScalarField;
    location    "7.725";
    object      phi;
}
// * * * * * * * * * * * * * * * * * * * * * * * * * * * * * * * * * * * * * //

dimensions      [0 3 -1 0 0 0 0];

internalField   nonuniform List<scalar> 
760
(
-1.16645e-05
1.16645e-05
-3.76634e-05
2.59989e-05
-6.88695e-05
3.12061e-05
-0.000101581
3.27112e-05
-0.000134603
3.30222e-05
-0.000167544
3.29412e-05
-0.00020002
3.24757e-05
-0.00023137
3.13502e-05
-0.000260546
2.91754e-05
-0.000286031
2.54855e-05
-0.000305796
1.97652e-05
-0.000317302
1.15057e-05
-0.000317629
3.27192e-07
-0.000303748
-1.38807e-05
-0.000273291
-3.04578e-05
-0.000225524
-4.7767e-05
-0.00016289
-6.26335e-05
-9.28188e-05
-7.00713e-05
-2.95436e-05
-6.32752e-05
-2.95436e-05
-2.77689e-05
3.94334e-05
-7.84234e-05
7.66533e-05
-0.00013736
9.01426e-05
-0.000198471
9.38226e-05
-0.000259383
9.39336e-05
-0.000318946
9.25042e-05
-0.000376116
8.9646e-05
-0.00042953
8.47647e-05
-0.000477323
7.69685e-05
-0.000517017
6.51791e-05
-0.000545465
4.8213e-05
-0.000558837
2.48781e-05
-0.000553228
-5.28189e-06
-0.000524213
-4.28958e-05
-0.000468734
-8.59373e-05
-0.000386159
-0.000130341
-0.00028052
-0.000168272
-0.000163393
-0.000187198
-5.64474e-05
-0.000170221
-8.5991e-05
-3.50023e-05
7.44357e-05
-9.69991e-05
0.00013865
-0.000168334
0.000161478
-0.000241755
0.000167243
-0.000314483
0.000166662
-0.000385168
0.000163189
-0.000452612
0.00015709
-0.000515318
0.000147472
-0.000571285
0.000132935
-0.000617849
0.000111743
-0.000651595
8.19596e-05
-0.000668434
4.17171e-05
-0.000663298
-1.04183e-05
-0.000630886
-7.53076e-05
-0.000566801
-0.000150022
-0.000469192
-0.000227951
-0.000341897
-0.000295568
-0.000198775
-0.00033032
-6.75725e-05
-0.000301423
-0.000153564
-3.77618e-05
0.000112198
-0.000104712
0.0002056
-0.000181515
0.000238282
-0.000260437
0.000246165
-0.00033869
0.000244914
-0.000415044
0.000239543
-0.000488479
0.000230524
-0.000557703
0.000216695
-0.000620919
0.000196151
-0.000675605
0.000166429
-0.000718269
0.000124624
-0.000744267
6.77145e-05
-0.000747892
-6.79268e-06
-0.000721572
-0.000101628
-0.000658071
-0.000213523
-0.000552188
-0.000333834
-0.000405558
-0.000442197
-0.000234511
-0.000501368
-7.61858e-05
-0.000459748
-0.000229749
-3.86599e-05
0.000150857
-0.000107959
0.000274899
-0.000187627
0.000317949
-0.000269711
0.00032825
-0.00035158
0.000326783
-0.000432312
0.000320275
-0.000511274
0.000309486
-0.000587624
0.000293046
-0.000660033
0.00026856
-0.00072637
0.000232766
-0.000783291
0.000181544
-0.000825691
0.000110115
-0.000846498
1.40136e-05
-0.000835572
-0.000112554
-0.000780795
-0.0002683
-0.000670762
-0.000443867
-0.000501321
-0.000611638
-0.000289101
-0.000713588
-8.80833e-05
-0.000660766
-0.000317833
-3.89168e-05
0.000189774
-0.000109685
0.000345667
-0.000191415
0.00039968
-0.000276014
0.000412848
-0.000361076
0.000411845
-0.00044611
0.000405308
-0.000531047
0.000394424
-0.000615737
0.000377736
-0.00069963
0.000352453
-0.000781382
0.000314518
-0.000858254
0.000258416
-0.000925218
0.000177079
-0.000973669
6.24647e-05
-0.000991233
-9.49898e-05
-0.000958768
-0.000300765
-0.000854411
-0.000548224
-0.000660443
-0.000805606
-0.000384986
-0.000989044
-0.000110087
-0.000935665
-0.00042792
-3.8942e-05
0.000228716
-0.000110903
0.000417629
-0.00019443
0.000483206
-0.000281267
0.000499686
-0.000369274
0.000499852
-0.000458477
0.000494512
-0.000549545
0.000485491
-0.000643281
0.000471472
-0.000740332
0.000449504
-0.000840749
0.000414935
-0.000943241
0.000360908
-0.00104394
0.000277775
-0.00113439
0.000152922
-0.00120122
-2.81675e-05
-0.00121757
-0.000284416
-0.00114622
-0.000619571
-0.000939255
-0.00101257
-0.000570382
-0.00135792
-0.000162169
-0.00134388
-0.000590089
-3.88233e-05
0.00026754
-0.000111842
0.000490647
-0.000196929
0.000568293
-0.000285592
0.000588348
-0.000375942
0.000590202
-0.000468586
0.000587156
-0.000565067
0.000581972
-0.000667424
0.000573828
-0.000777983
0.000560063
-0.000899038
0.00053599
-0.00103216
0.000494026
-0.0011769
0.000422515
-0.00132851
0.000304538
-0.00147473
0.000118051
-0.00158985
-0.000169297
-0.00161241
-0.000597011
-0.00143089
-0.00119409
-0.000934211
-0.0018546
-0.000294046
-0.00198404
-0.000884135
-3.86061e-05
0.000306146
-0.000112584
0.000564625
-0.000198889
0.000654598
-0.000288654
0.000678113
-0.000380201
0.000681749
-0.000474716
0.000681671
-0.00057467
0.000681926
-0.000683515
0.000682674
-0.000805718
0.000682266
-0.000946741
0.000677014
-0.00111277
0.000660053
-0.00131005
0.000619802
-0.00154366
0.000538143
-0.00181301
0.000387401
-0.00210083
0.000118528
-0.00230819
-0.000389659
-0.0022025
-0.00129978
-0.0015507
-0.00250639
-0.000582402
-0.00295235
-0.00146654
-3.8441e-05
0.000344587
-0.000113405
0.000639589
-0.000200508
0.000741701
-0.000290334
0.000767939
-0.00038133
0.000772745
-0.000475186
0.000775527
-0.000575235
0.000781975
-0.000686301
0.00079374
-0.000815096
0.00081106
-0.000970859
0.000832776
-0.00116628
0.000855475
-0.00141863
0.000872155
-0.00175058
0.000870091
-0.00218394
0.000820757
-0.00269393
0.000628523
-0.00312106
3.74695e-05
-0.00309219
-0.00132865
-0.00232951
-0.00326907
-0.00108621
-0.00419565
-0.00255275
-3.8692e-05
0.000383279
-0.000115002
0.0007159
-0.000202536
0.000829235
-0.000291149
0.000856552
-0.000379295
0.000860892
-0.000469033
0.000865265
-0.000564288
0.00087723
-0.000670868
0.000900321
-0.00079726
0.000937452
-0.000956066
0.000991582
-0.00116643
0.00106584
-0.00145767
0.00116339
-0.0018704
0.00128282
-0.00243811
0.00138847
-0.00310927
0.00129968
-0.00362527
0.000553475
-0.00363554
-0.00131838
-0.00297314
-0.00393147
-0.00171271
-0.00545608
-0.00426546
-4.01143e-05
0.000423393
-0.000118804
0.000794589
-0.0002066
0.000917031
-0.000292579
0.000942531
-0.000375202
0.000943515
-0.000456708
0.00094677
-0.000541173
0.000961695
-0.000634566
0.000993714
-0.000745838
0.00104872
-0.000888829
0.00113457
-0.00108535
0.00126236
-0.0013687
0.00144674
-0.0017805
0.00169462
-0.00233356
0.00194153
-0.00294069
0.00190681
-0.00336533
0.000978116
-0.00340777
-0.00127594
-0.00302024
-0.004319
-0.00196158
-0.00651473
-0.00622704
-4.37849e-05
0.000467178
-0.000126837
0.000877642
-0.000215275
0.00100547
-0.000297462
0.00102472
-0.000371828
0.00101788
-0.000440641
0.00101558
-0.000507693
0.00102875
-0.000577788
0.00106381
-0.000657927
0.00112886
-0.000758769
0.00123541
-0.000896533
0.00140013
-0.0010928
0.00164301
-0.00136934
0.00197117
-0.00171334
0.00228553
-0.00205776
0.00225123
-0.00228574
0.00120609
-0.002385
-0.00117668
-0.00233181
-0.0043722
-0.00167062
-0.00717592
-0.00789766
-5.32215e-05
0.000520399
-0.000144579
0.000969
-0.000233374
0.00109426
-0.000309088
0.00110043
-0.000372002
0.0010808
-0.000424579
0.00106816
-0.000469054
0.00107322
-0.000508082
0.00110284
-0.000544786
0.00116557
-0.00058303
0.00127366
-0.000627651
0.00144475
-0.000679967
0.00169532
-0.000738651
0.00202985
-0.000779622
0.0023265
-0.00081407
0.00228568
-0.000846056
0.00123808
-0.000977964
-0.00104477
-0.00127479
-0.00407537
-0.00113714
-0.00731357
-0.0090348
-6.51077e-05
0.000585507
-0.00016849
0.00107238
-0.000262067
0.00118784
-0.000335772
0.00117414
-0.000387684
0.00113271
-0.000421174
0.00110165
-0.000438641
0.00109069
-0.000440924
0.00110512
-0.000427113
0.00115176
-0.000393865
0.00124041
-0.00033482
0.0013857
-0.000234682
0.00159518
-7.30169e-05
0.00186818
0.000147205
0.00210627
0.000390753
0.00204213
0.000477639
0.00115119
0.000269881
-0.000837011
-0.000373302
-0.00343219
-0.000678388
-0.00700848
-0.00971319
-0.000132646
0.000718154
-0.00025061
0.00119035
-0.000329493
0.00126672
-0.000377697
0.00122234
-0.000405583
0.00116059
-0.000416681
0.00111275
-0.000409678
0.00108369
-0.00038059
0.00107603
-0.000323495
0.00109466
-0.000228866
0.00114578
-8.34767e-05
0.00124031
0.00013173
0.00137998
0.000435413
0.0015645
0.000829641
0.00171205
0.00122288
0.00164889
0.00139276
0.000981315
0.00112208
-0.000566328
0.000291427
-0.00260154
-0.000279865
-0.00643719
-0.00999305
-8.58808e-05
0.000804034
-0.000268745
0.00137321
-0.000388166
0.00138614
-0.000451855
0.00128603
-0.000475265
0.001184
-0.000468501
0.00110598
-0.000434246
0.00104943
-0.000370101
0.00101189
-0.00027024
0.000994799
-0.000122838
0.000998381
8.68833e-05
0.00103059
0.000374708
0.00109215
0.000757435
0.00118177
0.00122537
0.00124411
0.00168331
0.00119096
0.00189336
0.000771258
0.00159166
-0.000264622
0.000774396
-0.00178428
0.000137637
-0.00580043
-0.00985542
-0.000381212
0.00118525
-0.000444648
0.00143665
-0.000501389
0.00144289
-0.00054778
0.00133242
-0.000547339
0.00118356
-0.000506028
0.00106467
-0.000427933
0.000971335
-0.000311592
0.000895547
-0.000157596
0.000840804
4.2295e-05
0.00079849
0.000293769
0.000779118
0.000611695
0.000774228
0.000999178
0.000794292
0.00143531
0.000807983
0.00186787
0.000758394
0.00210384
0.000535288
0.00203975
-0.000200538
0.00160773
-0.00135226
0.000884702
-0.0050774
-0.00897072
-0.00136215
0.0025474
-0.00132682
0.00140132
-0.00107161
0.00118767
-0.000704639
0.000965449
-0.000316751
0.000795674
7.55078e-05
0.000672414
0.000460501
0.000586342
0.000837411
0.000518636
0.00120827
0.00046994
0.00157743
0.000429332
0.0019541
0.000402449
0.0023455
0.000382828
0.00277145
0.000368347
0.00322748
0.000351947
0.00370451
0.00028137
0.00408864
0.000151155
0.00419615
-0.000308051
0.00401331
-0.00116942
0.00253964
-0.00360372
-0.00643108
0.0025474
0.00394872
0.00513639
0.00610184
0.00689751
0.00756993
0.00815627
0.0086749
0.00914484
0.00957418
0.00997662
0.0103595
0.0107278
0.0110797
0.0113611
0.0115123
0.0112042
0.0100348
0.00643108
)
;

boundaryField
{
    movingWall
    {
        type            calculated;
        value           uniform 0;
    }
    fixedWalls
    {
        type            calculated;
        value           uniform 0;
    }
    frontAndBack
    {
        type            empty;
        value           nonuniform List<scalar> 0();
    }
}


// ************************************************************************* //
