/*--------------------------------*- C++ -*----------------------------------*\
  =========                 |
  \\      /  F ield         | OpenFOAM: The Open Source CFD Toolbox
   \\    /   O peration     | Website:  https://openfoam.org
    \\  /    A nd           | Version:  10
     \\/     M anipulation  |
\*---------------------------------------------------------------------------*/
FoamFile
{
    format      ascii;
    class       volScalarField;
    location    "3.475";
    object      p;
}
// * * * * * * * * * * * * * * * * * * * * * * * * * * * * * * * * * * * * * //

dimensions      [0 2 -2 0 0 0 0];

internalField   nonuniform List<scalar> 
400
(
1.24606e-09
-3.21485e-05
-1.23632e-05
3.27545e-05
0.000108873
0.000216432
0.000355387
0.000525344
0.000725038
0.000951962
0.00120203
0.00146924
0.00174546
0.00202032
0.00228148
0.00251517
0.00270681
0.00284279
0.00292167
0.00289989
3.20574e-05
-1.33092e-06
1.90362e-05
6.16641e-05
0.000133547
0.000235692
0.000368437
0.000531746
0.000724706
0.000945171
0.0011894
0.00145149
0.00172397
0.00199652
0.00225677
0.00249078
0.00268357
0.00282142
0.00290391
0.00288075
8.88009e-06
-2.91826e-05
-1.04211e-05
2.97342e-05
9.90031e-05
0.000198624
0.000329309
0.000491495
0.000684783
0.000907532
0.00115647
0.00142664
0.00171008
0.00199635
0.00227245
0.00252323
0.00273181
0.00288208
0.00297291
0.00294577
-4.43903e-05
-8.66726e-05
-7.00697e-05
-3.30927e-05
3.28834e-05
0.000129498
0.000258066
0.000419752
0.00061497
0.000842922
0.00110112
0.00138506
0.00168765
0.00199806
0.00230209
0.00258241
0.00281907
0.00299187
0.00309807
0.00306897
-0.000133464
-0.000180538
-0.000166719
-0.00013362
-7.15157e-05
2.17736e-05
0.000148365
0.000310405
0.000509425
0.000745829
0.00101832
0.00132331
0.0016544
0.00200068
0.00234681
0.00267263
0.00295335
0.0031622
0.00329329
0.00326374
-0.000258859
-0.000311852
-0.000301643
-0.000273554
-0.000216536
-0.000127721
-3.98587e-06
0.000158081
0.000361486
0.000608275
0.000898848
0.00123115
0.00160027
0.00199555
0.00240049
0.00279156
0.00313743
0.00340125
0.00357115
0.00354369
-0.000421108
-0.000481429
-0.000475951
-0.000454606
-0.000404757
-0.000322718
-0.000204136
-4.40302e-05
0.000162498
0.000419694
0.000730359
0.00109477
0.00151068
0.00196865
0.00245184
0.00293317
0.003373
0.00371947
0.00394956
0.00393033
-0.000621162
-0.000690487
-0.000691214
-0.000679032
-0.000639442
-0.000567843
-0.00045845
-0.000304405
-9.84803e-05
0.000166417
0.000496431
0.000895286
0.00136467
0.00189868
0.00248201
0.00308491
0.00365831
0.0041294
0.00445368
0.00445787
-0.000860148
-0.000940404
-0.000949139
-0.000949257
-0.000924124
-0.00086818
-0.000774064
-0.000632795
-0.000434434
-0.000168404
0.000175904
0.000608476
0.00113236
0.00175316
0.00245942
0.0032218
0.00398243
0.00464293
0.00511698
0.00518218
-0.00113933
-0.00123266
-0.00125141
-0.00126762
-0.00126227
-0.00122886
-0.00115839
-0.00103965
-0.000859782
-0.000604404
-0.000257794
0.00019606
0.000772126
0.0014839
0.00233242
0.00329634
0.0043144
0.00526301
0.00598066
0.0061991
-0.00146028
-0.00156895
-0.00159958
-0.00163613
-0.00165687
-0.00165452
-0.00161841
-0.00153518
-0.00138918
-0.00116223
-0.00083316
-0.000377809
0.000230614
0.00102192
0.0020187
0.00322122
0.00458097
0.00596116
0.0070891
0.00767879
-0.00182532
-0.00195142
-0.00199503
-0.00205613
-0.00210994
-0.00214852
-0.00215961
-0.00212793
-0.00203557
-0.00186129
-0.0015791
-0.00115646
-0.000552276
0.000275508
0.00139232
0.00284009
0.00462153
0.00662795
0.00844505
0.00992558
-0.00223887
-0.00238335
-0.00243891
-0.00252791
-0.00262184
-0.00271211
-0.00278479
-0.002823
-0.00280763
-0.00271632
-0.00252147
-0.002187
-0.0016645
-0.000890463
0.000256019
0.00187647
0.00409454
0.00693152
0.00988017
0.0134087
-0.00271003
-0.0028697
-0.00293004
-0.00304825
-0.00318964
-0.00334352
-0.00349307
-0.0036202
-0.00370617
-0.0037303
-0.00366794
-0.003486
-0.00313329
-0.00252017
-0.00153886
-3.48519e-05
0.00236726
0.00599525
0.0104665
0.0177114
-0.00325583
-0.00343741
-0.00349316
-0.00364286
-0.00382872
-0.00404659
-0.00428101
-0.00451241
-0.00472161
-0.00489172
-0.00500915
-0.00506024
-0.00502447
-0.00486181
-0.0045066
-0.00375669
-0.00223216
0.00142317
0.00651633
0.0190923
-0.00396374
-0.00394877
-0.00395697
-0.00409628
-0.00435678
-0.00469414
-0.00507127
-0.0054539
-0.00581926
-0.00615664
-0.00647199
-0.00678635
-0.00714056
-0.00759497
-0.00825932
-0.00919067
-0.0103994
-0.00927568
-0.00621587
0.0128316
-0.00446824
-0.00498364
-0.00489824
-0.00518002
-0.00545925
-0.00581383
-0.0062238
-0.00666347
-0.00711617
-0.00757465
-0.00805969
-0.00863081
-0.00941909
-0.0106545
-0.0128324
-0.0162921
-0.0234957
-0.0270814
-0.0250822
0.0032706
-0.00757507
-0.0051213
-0.00486194
-0.00478321
-0.0052012
-0.0058203
-0.00654278
-0.00727513
-0.00798624
-0.00864901
-0.0093138
-0.0100438
-0.0110971
-0.0127194
-0.016082
-0.020763
-0.0316956
-0.0380684
-0.0362101
0.0140461
-0.00449308
-0.00744518
-0.00689214
-0.00752669
-0.00779398
-0.00821685
-0.00874637
-0.0093042
-0.00987617
-0.0104276
-0.0109431
-0.0115799
-0.0125528
-0.014134
-0.0182028
-0.0232532
-0.0343842
-0.0363183
-0.0174188
0.0640294
-0.028566
-0.00394993
-0.00329298
-0.00331351
-0.00391352
-0.00491779
-0.00612618
-0.00723915
-0.00833641
-0.00920431
-0.0101407
-0.0109413
-0.0122787
-0.0138215
-0.0164057
-0.0179272
-0.0161625
0.00441215
0.0642478
0.19894
)
;

boundaryField
{
    movingWall
    {
        type            zeroGradient;
    }
    fixedWalls
    {
        type            zeroGradient;
    }
    frontAndBack
    {
        type            empty;
    }
}


// ************************************************************************* //
