/*--------------------------------*- C++ -*----------------------------------*\
  =========                 |
  \\      /  F ield         | OpenFOAM: The Open Source CFD Toolbox
   \\    /   O peration     | Website:  https://openfoam.org
    \\  /    A nd           | Version:  10
     \\/     M anipulation  |
\*---------------------------------------------------------------------------*/
FoamFile
{
    format      ascii;
    class       volVectorField;
    location    "0.1";
    object      U;
}
// * * * * * * * * * * * * * * * * * * * * * * * * * * * * * * * * * * * * * //

dimensions      [0 1 -1 0 0 0 0];

internalField   nonuniform List<vector> 
475
(
(0.824817 0.00352515 0)
(1.04215 -0.00634793 0)
(1.05707 -0.0100676 0)
(1.08176 -0.0936977 0)
(1.11768 0.0579274 0)
(0.834983 -0.00148344 0)
(1.05495 -0.0190196 0)
(1.06246 -0.04216 0)
(1.01059 -0.0815981 0)
(1.03358 -0.180104 0)
(0.834469 -0.011105 0)
(1.04734 -0.0276606 0)
(1.03541 -0.0416704 0)
(0.990903 -0.071554 0)
(0.967406 -0.0860136 0)
(0.834986 -0.015952 0)
(1.04312 -0.0258606 0)
(1.02162 -0.0324131 0)
(0.968229 -0.0447305 0)
(0.934704 -0.0625761 0)
(0.824427 -0.00973267 0)
(1.01591 -0.0123406 0)
(0.981529 -0.0128785 0)
(0.922882 -0.0159777 0)
(0.886984 -0.0207205 0)
(1.25175 -0.452495 0)
(0.854536 -0.485307 0)
(0.666048 -0.356303 0)
(0.594912 -0.244709 0)
(0.554836 -0.171206 0)
(0.533926 -0.122307 0)
(0.522981 -0.0884044 0)
(0.516656 -0.0642823 0)
(0.512703 -0.0468917 0)
(0.510099 -0.0342657 0)
(0.508322 -0.025063 0)
(0.507083 -0.0183413 0)
(0.506208 -0.013426 0)
(0.505583 -0.00982934 0)
(0.505133 -0.00719637 0)
(0.504806 -0.00526854 0)
(0.504568 -0.00385707 0)
(0.504397 -0.00282384 0)
(0.504273 -0.00206754 0)
(0.504183 -0.00151382 0)
(0.504116 -0.0011083 0)
(0.504066 -0.000811259 0)
(0.50403 -0.000593752 0)
(0.504004 -0.000434583 0)
(0.503986 -0.000318167 0)
(0.503973 -0.000233016 0)
(0.503963 -0.000170679 0)
(0.503955 -0.000124986 0)
(0.503949 -9.14808e-05 0)
(0.503945 -6.69403e-05 0)
(0.503942 -4.89965e-05 0)
(0.50394 -3.58849e-05 0)
(0.503939 -2.62986e-05 0)
(0.503938 -1.92764e-05 0)
(0.503937 -1.41084e-05 0)
(0.503936 -1.03004e-05 0)
(0.503935 -7.52456e-06 0)
(0.503935 -5.53452e-06 0)
(0.503934 -4.12239e-06 0)
(0.503934 -3.1339e-06 0)
(0.503936 -2.45252e-06 0)
(0.503929 -1.98109e-06 0)
(0.503947 -1.71703e-06 0)
(0.503929 -1.62933e-06 0)
(0.503935 -1.38288e-06 0)
(0.956408 -0.307747 0)
(0.809281 -0.261096 0)
(0.693878 -0.211763 0)
(0.633414 -0.172605 0)
(0.594578 -0.13469 0)
(0.567365 -0.101849 0)
(0.548742 -0.0758939 0)
(0.53591 -0.056151 0)
(0.526926 -0.0413858 0)
(0.520555 -0.0304378 0)
(0.515995 -0.0223566 0)
(0.512712 -0.0164057 0)
(0.510335 -0.0120307 0)
(0.508608 -0.00881863 0)
(0.507348 -0.00646275 0)
(0.506428 -0.00473536 0)
(0.505757 -0.00346862 0)
(0.505269 -0.00253982 0)
(0.504912 -0.00185939 0)
(0.50465 -0.00136152 0)
(0.504457 -0.000997362 0)
(0.504316 -0.000730716 0)
(0.504213 -0.000535084 0)
(0.504139 -0.000391409 0)
(0.504085 -0.000286059 0)
(0.504045 -0.000209125 0)
(0.504015 -0.000153179 0)
(0.503993 -0.000112521 0)
(0.503976 -8.28035e-05 0)
(0.503965 -6.08508e-05 0)
(0.503957 -4.44914e-05 0)
(0.503951 -3.22996e-05 0)
(0.503947 -2.33115e-05 0)
(0.503944 -1.68147e-05 0)
(0.503941 -1.22368e-05 0)
(0.503939 -9.06835e-06 0)
(0.503937 -6.85381e-06 0)
(0.503936 -5.24228e-06 0)
(0.503935 -4.01139e-06 0)
(0.503935 -3.03618e-06 0)
(0.503937 -2.28193e-06 0)
(0.50393 -1.74853e-06 0)
(0.503948 -1.49035e-06 0)
(0.503928 -1.49679e-06 0)
(0.503935 -1.57368e-06 0)
(0.912161 -0.155494 0)
(0.819618 -0.178591 0)
(0.732951 -0.155918 0)
(0.670809 -0.126104 0)
(0.625923 -0.099159 0)
(0.592821 -0.0762072 0)
(0.568682 -0.0576346 0)
(0.551155 -0.0431338 0)
(0.538409 -0.0320582 0)
(0.529124 -0.0237163 0)
(0.522351 -0.0174894 0)
(0.517406 -0.012869 0)
(0.513793 -0.00945538 0)
(0.511149 -0.00694071 0)
(0.509214 -0.00509132 0)
(0.507798 -0.00373229 0)
(0.506762 -0.00273448 0)
(0.506004 -0.00200289 0)
(0.50545 -0.00146722 0)
(0.505043 -0.0010751 0)
(0.504745 -0.000787717 0)
(0.504527 -0.000576745 0)
(0.504368 -0.000421844 0)
(0.504252 -0.000308385 0)
(0.504167 -0.000225613 0)
(0.504104 -0.00016539 0)
(0.504058 -0.000121502 0)
(0.504024 -8.93066e-05 0)
(0.503999 -6.54893e-05 0)
(0.503981 -4.77958e-05 0)
(0.503969 -3.47188e-05 0)
(0.503959 -2.51839e-05 0)
(0.503953 -1.83311e-05 0)
(0.503947 -1.34423e-05 0)
(0.503943 -9.96126e-06 0)
(0.50394 -7.42477e-06 0)
(0.503938 -5.51168e-06 0)
(0.503936 -4.04014e-06 0)
(0.503935 -2.92943e-06 0)
(0.503934 -2.15613e-06 0)
(0.503935 -1.67066e-06 0)
(0.503929 -1.44042e-06 0)
(0.503946 -1.40723e-06 0)
(0.503926 -1.59132e-06 0)
(0.503933 -1.55745e-06 0)
(0.887518 -0.0871357 0)
(0.819203 -0.0962209 0)
(0.748621 -0.0877239 0)
(0.689927 -0.0735347 0)
(0.643961 -0.059187 0)
(0.608435 -0.0462726 0)
(0.581421 -0.0354338 0)
(0.561141 -0.0267568 0)
(0.546036 -0.0200138 0)
(0.534845 -0.0148727 0)
(0.526585 -0.011002 0)
(0.520503 -0.00811301 0)
(0.516032 -0.00596993 0)
(0.512748 -0.00438673 0)
(0.510338 -0.00322012 0)
(0.50857 -0.00236187 0)
(0.507275 -0.00173132 0)
(0.506327 -0.00126865 0)
(0.505632 -0.000929496 0)
(0.505123 -0.000680948 0)
(0.50475 -0.000498724 0)
(0.504477 -0.000365087 0)
(0.504277 -0.000267146 0)
(0.504131 -0.000195495 0)
(0.504024 -0.000143172 0)
(0.503946 -0.000104967 0)
(0.503888 -7.69908e-05 0)
(0.503846 -5.64094e-05 0)
(0.503815 -4.12249e-05 0)
(0.503792 -3.00501e-05 0)
(0.503776 -2.18863e-05 0)
(0.503765 -1.59751e-05 0)
(0.503756 -1.17312e-05 0)
(0.503749 -8.69663e-06 0)
(0.503744 -6.48143e-06 0)
(0.50374 -4.83208e-06 0)
(0.503737 -3.58585e-06 0)
(0.503735 -2.64769e-06 0)
(0.503734 -1.94894e-06 0)
(0.503733 -1.45517e-06 0)
(0.503734 -1.12517e-06 0)
(0.503727 -1.04651e-06 0)
(0.503745 -9.59797e-07 0)
(0.503724 -1.70952e-06 0)
(0.503732 -1.97734e-06 0)
(0.842968 -0.0271349 0)
(0.78514 -0.0302991 0)
(0.724545 -0.0282672 0)
(0.670823 -0.0239953 0)
(0.626811 -0.0194619 0)
(0.591924 -0.0153138 0)
(0.564877 -0.0117904 0)
(0.54426 -0.00894153 0)
(0.52873 -0.00671009 0)
(0.517129 -0.00499826 0)
(0.508514 -0.00370354 0)
(0.502144 -0.00273412 0)
(0.497446 -0.00201353 0)
(0.493989 -0.0014805 0)
(0.491448 -0.00108735 0)
(0.489583 -0.000797852 0)
(0.488216 -0.000584973 0)
(0.487213 -0.00042867 0)
(0.486479 -0.000314059 0)
(0.48594 -0.000230062 0)
(0.485546 -0.000168478 0)
(0.485257 -0.000123312 0)
(0.485046 -9.02177e-05 0)
(0.484891 -6.60264e-05 0)
(0.484778 -4.83848e-05 0)
(0.484695 -3.55098e-05 0)
(0.484634 -2.60589e-05 0)
(0.484589 -1.90656e-05 0)
(0.484556 -1.38765e-05 0)
(0.484533 -1.0054e-05 0)
(0.484516 -7.28318e-06 0)
(0.484503 -5.32082e-06 0)
(0.484494 -3.97076e-06 0)
(0.484487 -3.05044e-06 0)
(0.484482 -2.34492e-06 0)
(0.484478 -1.78163e-06 0)
(0.484475 -1.33558e-06 0)
(0.484473 -9.80631e-07 0)
(0.484471 -6.90577e-07 0)
(0.48447 -4.63826e-07 0)
(0.484471 -3.23411e-07 0)
(0.484464 -3.60257e-07 0)
(0.48448 -3.17019e-07 0)
(0.484462 -1.00883e-06 0)
(0.484465 -1.32661e-06 0)
(0.0429119 -0.0421825 0)
(0.128298 -0.0418076 0)
(0.207436 -0.0363675 0)
(0.273919 -0.0296952 0)
(0.326979 -0.0232372 0)
(0.367867 -0.0176867 0)
(0.398673 -0.0132303 0)
(0.421561 -0.00979377 0)
(0.438425 -0.00720469 0)
(0.450798 -0.00528054 0)
(0.459855 -0.00386308 0)
(0.466475 -0.00282469 0)
(0.471312 -0.0020653 0)
(0.474848 -0.00150944 0)
(0.477433 -0.00110265 0)
(0.479323 -0.000805809 0)
(0.480703 -0.000589653 0)
(0.481712 -0.000431886 0)
(0.482451 -0.000316093 0)
(0.482993 -0.000230884 0)
(0.483389 -0.000168487 0)
(0.483678 -0.000123209 0)
(0.483889 -9.04914e-05 0)
(0.484043 -6.6673e-05 0)
(0.484157 -4.90179e-05 0)
(0.484241 -3.57194e-05 0)
(0.484303 -2.57657e-05 0)
(0.484347 -1.85388e-05 0)
(0.484379 -1.34582e-05 0)
(0.484403 -9.94665e-06 0)
(0.48442 -7.51876e-06 0)
(0.484432 -5.76735e-06 0)
(0.484442 -4.35851e-06 0)
(0.484449 -3.22456e-06 0)
(0.484454 -2.34829e-06 0)
(0.484458 -1.69389e-06 0)
(0.484461 -1.21439e-06 0)
(0.484462 -8.89261e-07 0)
(0.484464 -6.64338e-07 0)
(0.484465 -4.82821e-07 0)
(0.484467 -3.35881e-07 0)
(0.484462 -1.08988e-07 0)
(0.484478 -3.53643e-08 0)
(0.484465 6.93002e-07 0)
(0.484465 9.12072e-07 0)
(0.0470663 -0.130699 0)
(0.141165 -0.130146 0)
(0.227559 -0.111892 0)
(0.297568 -0.0903234 0)
(0.351625 -0.0700246 0)
(0.392183 -0.0529331 0)
(0.422155 -0.0394075 0)
(0.444138 -0.0290785 0)
(0.460206 -0.0213483 0)
(0.471938 -0.0156298 0)
(0.480499 -0.011429 0)
(0.486748 -0.00835416 0)
(0.491313 -0.00610584 0)
(0.494651 -0.00446189 0)
(0.497091 -0.00326078 0)
(0.498872 -0.00238433 0)
(0.500174 -0.00174468 0)
(0.501127 -0.00127684 0)
(0.501826 -0.000933888 0)
(0.502339 -0.000682613 0)
(0.502713 -0.000499113 0)
(0.502985 -0.000365487 0)
(0.503183 -0.000268051 0)
(0.503329 -0.000196595 0)
(0.503438 -0.000143864 0)
(0.503518 -0.000104909 0)
(0.503576 -7.63637e-05 0)
(0.503618 -5.57278e-05 0)
(0.503647 -4.09271e-05 0)
(0.503669 -3.02592e-05 0)
(0.503685 -2.24518e-05 0)
(0.503697 -1.66076e-05 0)
(0.503706 -1.21205e-05 0)
(0.503714 -8.71914e-06 0)
(0.503719 -6.23842e-06 0)
(0.503722 -4.5015e-06 0)
(0.503724 -3.31114e-06 0)
(0.503726 -2.49633e-06 0)
(0.503727 -1.90454e-06 0)
(0.503728 -1.43952e-06 0)
(0.50373 -1.06907e-06 0)
(0.503725 -6.46416e-07 0)
(0.503743 -4.31924e-07 0)
(0.503727 3.95597e-07 0)
(0.503732 6.04066e-07 0)
(0.0536865 -0.220183 0)
(0.158576 -0.229077 0)
(0.255206 -0.192149 0)
(0.326147 -0.151294 0)
(0.37693 -0.114903 0)
(0.412785 -0.0855516 0)
(0.438157 -0.063041 0)
(0.456249 -0.0462129 0)
(0.469248 -0.033794 0)
(0.478644 -0.0246882 0)
(0.485466 -0.0180328 0)
(0.490434 -0.0131733 0)
(0.494061 -0.00962489 0)
(0.496713 -0.00703369 0)
(0.49865 -0.00514211 0)
(0.500065 -0.00376112 0)
(0.5011 -0.00275179 0)
(0.501859 -0.00201307 0)
(0.502416 -0.00147229 0)
(0.502824 -0.00107692 0)
(0.503121 -0.000788261 0)
(0.503337 -0.000577392 0)
(0.503496 -0.000422933 0)
(0.503613 -0.000309473 0)
(0.503699 -0.000226138 0)
(0.503763 -0.00016519 0)
(0.503809 -0.000120866 0)
(0.503842 -8.87149e-05 0)
(0.503866 -6.53155e-05 0)
(0.503883 -4.81165e-05 0)
(0.503896 -3.53083e-05 0)
(0.503906 -2.57077e-05 0)
(0.503913 -1.85849e-05 0)
(0.503919 -1.33844e-05 0)
(0.503923 -9.66212e-06 0)
(0.503925 -7.04053e-06 0)
(0.503927 -5.20219e-06 0)
(0.503928 -3.88872e-06 0)
(0.50393 -2.93421e-06 0)
(0.50393 -2.22812e-06 0)
(0.503932 -1.70013e-06 0)
(0.503927 -1.27563e-06 0)
(0.503945 -9.93827e-07 0)
(0.503928 -7.79905e-07 0)
(0.503934 -7.59327e-07 0)
(0.0868111 -0.285114 0)
(0.18521 -0.350953 0)
(0.305086 -0.280451 0)
(0.374375 -0.209692 0)
(0.417212 -0.153495 0)
(0.444036 -0.111609 0)
(0.461549 -0.0810597 0)
(0.473477 -0.058923 0)
(0.481849 -0.0428896 0)
(0.487837 -0.0312598 0)
(0.492168 -0.0228087 0)
(0.495322 -0.0166557 0)
(0.497629 -0.012169 0)
(0.499317 -0.00889468 0)
(0.500552 -0.00650454 0)
(0.501455 -0.00475886 0)
(0.502117 -0.0034823 0)
(0.502604 -0.00254772 0)
(0.502961 -0.00186352 0)
(0.503223 -0.00136332 0)
(0.503413 -0.000998097 0)
(0.503551 -0.000731263 0)
(0.503653 -0.000535752 0)
(0.503728 -0.000392052 0)
(0.503784 -0.000286412 0)
(0.503825 -0.000209087 0)
(0.503855 -0.000152888 0)
(0.503876 -0.00011224 0)
(0.503891 -8.27472e-05 0)
(0.503902 -6.10625e-05 0)
(0.50391 -4.48335e-05 0)
(0.503917 -3.25739e-05 0)
(0.503922 -2.34008e-05 0)
(0.503926 -1.67131e-05 0)
(0.503928 -1.20124e-05 0)
(0.50393 -8.81377e-06 0)
(0.503931 -6.65223e-06 0)
(0.503931 -5.1535e-06 0)
(0.503932 -4.05441e-06 0)
(0.503932 -3.15172e-06 0)
(0.503934 -2.3684e-06 0)
(0.503929 -1.69859e-06 0)
(0.503947 -1.24934e-06 0)
(0.503929 -9.67208e-07 0)
(0.503935 -1.01405e-06 0)
(0.320696 -0.665689 0)
(0.245731 -0.545617 0)
(0.400285 -0.386921 0)
(0.453064 -0.261884 0)
(0.475036 -0.180083 0)
(0.485269 -0.126784 0)
(0.490871 -0.0906612 0)
(0.494432 -0.0654407 0)
(0.496917 -0.0475003 0)
(0.498728 -0.0345914 0)
(0.500072 -0.0252397 0)
(0.501075 -0.0184379 0)
(0.501824 -0.0134792 0)
(0.502378 -0.00985869 0)
(0.502787 -0.00721272 0)
(0.503088 -0.0052777 0)
(0.503313 -0.00386214 0)
(0.503479 -0.00282655 0)
(0.503602 -0.00206896 0)
(0.503691 -0.00151464 0)
(0.503755 -0.00110887 0)
(0.503801 -0.000811666 0)
(0.503836 -0.000593961 0)
(0.503863 -0.000434586 0)
(0.503884 -0.000318048 0)
(0.503898 -0.00023291 0)
(0.503907 -0.000170695 0)
(0.503914 -0.00012515 0)
(0.503918 -9.17249e-05 0)
(0.503922 -6.71491e-05 0)
(0.503926 -4.9076e-05 0)
(0.503929 -3.5817e-05 0)
(0.503931 -2.61327e-05 0)
(0.503932 -1.9082e-05 0)
(0.503932 -1.39408e-05 0)
(0.503932 -1.01914e-05 0)
(0.503932 -7.48058e-06 0)
(0.503932 -5.53541e-06 0)
(0.503933 -4.13812e-06 0)
(0.503933 -3.13761e-06 0)
(0.503935 -2.43644e-06 0)
(0.503929 -1.94617e-06 0)
(0.503947 -1.63992e-06 0)
(0.503929 -1.50262e-06 0)
(0.503935 -1.27803e-06 0)
)
;

boundaryField
{
    inlet
    {
        type            fixedValue;
        value           uniform (1 0 0);
    }
    outlet
    {
        type            zeroGradient;
    }
    upperWall
    {
        type            noSlip;
    }
    lowerWall
    {
        type            noSlip;
    }
    frontAndBack
    {
        type            empty;
    }
}


// ************************************************************************* //
