/*--------------------------------*- C++ -*----------------------------------*\
  =========                 |
  \\      /  F ield         | OpenFOAM: The Open Source CFD Toolbox
   \\    /   O peration     | Website:  https://openfoam.org
    \\  /    A nd           | Version:  10
     \\/     M anipulation  |
\*---------------------------------------------------------------------------*/
FoamFile
{
    format      ascii;
    class       volScalarField;
    location    "3.575";
    object      p;
}
// * * * * * * * * * * * * * * * * * * * * * * * * * * * * * * * * * * * * * //

dimensions      [0 2 -2 0 0 0 0];

internalField   nonuniform List<scalar> 
400
(
-7.45682e-10
-3.22071e-05
-1.30113e-05
3.12145e-05
0.000106261
0.00021261
0.000350337
0.000519192
0.000718075
0.00094464
0.00119494
0.00146308
0.00174096
0.00201812
0.00228204
0.00251863
0.0027129
0.00285078
0.00293074
0.00290876
3.21856e-05
-1.22313e-06
1.86965e-05
6.05064e-05
0.000131345
0.00023227
0.000363742
0.000525874
0.000717916
0.000937893
0.00118221
0.00144509
0.00171911
0.00199389
0.00225687
0.00249381
0.0026893
0.00282918
0.00291293
0.00288957
9.54307e-06
-2.86242e-05
-1.03317e-05
2.89311e-05
9.70388e-05
0.000195276
0.000324481
0.000485248
0.000677364
0.00089938
0.00114821
0.00141906
0.00170406
0.00199272
0.00227187
0.00252602
0.00273778
0.00289047
0.00298284
0.00295532
-4.30192e-05
-8.54256e-05
-6.9336e-05
-3.33743e-05
3.12464e-05
0.000126204
0.000252944
0.000412808
0.00060642
0.000833223
0.00109097
0.00137536
0.0016795
0.00199256
0.00230018
0.00258462
0.00282531
0.00300126
0.00310953
0.00307995
-0.000131245
-0.000178426
-0.00016519
-0.000133277
-7.28017e-05
1.84465e-05
0.000142719
0.000302358
0.000499145
0.000733782
0.00100529
0.0013104
0.001643
0.00199228
0.00234275
0.00267384
0.00295995
0.00317317
0.00330723
0.00327719
-0.000255561
-0.000308614
-0.000299073
-0.000272382
-0.000217345
-0.00013108
-1.03263e-05
0.00014854
0.00034882
0.000592928
0.00088169
0.0012135
0.00158398
0.00198262
0.00239293
0.00279092
0.00314427
0.00341444
0.00358882
0.00356104
-0.000416398
-0.000476698
-0.000471976
-0.000452269
-0.000404827
-0.00032598
-0.000211248
-5.54183e-05
0.000146739
0.00039992
0.000707471
0.0010703
0.00148713
0.00194877
0.00243855
0.00292905
0.0033795
0.00373555
0.00397266
0.00395383
-0.000614594
-0.000683772
-0.000685323
-0.000675026
-0.000638326
-0.000570693
-0.000466247
-0.0003179
-0.000118048
0.000140928
0.000465792
0.000860764
0.00133053
0.00186817
0.00245932
0.00307431
0.00366286
0.00414887
0.00448453
0.00449132
-0.000851149
-0.000931067
-0.000940637
-0.000942851
-0.000921111
-0.000870021
-0.000782189
-0.000648439
-0.000458427
-0.000200913
0.000135738
0.000563058
0.00108365
0.00170661
0.00242139
0.00319925
0.00398136
0.00466546
0.00515851
0.00523243
-0.0011272
-0.0012199
-0.00123938
-0.00125778
-0.00125627
-0.00122867
-0.00116605
-0.0010571
-0.00088861
-0.000645486
-0.000310913
0.000132664
0.000701769
0.00141292
0.0022692
0.00325182
0.00429967
0.00528529
0.00603602
0.00627905
-0.00144421
-0.0015518
-0.00158283
-0.00162143
-0.00164627
-0.00165062
-0.0016241
-0.00155339
-0.0014226
-0.0012129
-0.000901927
-0.000463811
0.000129791
0.000914875
0.00191461
0.00313668
0.00453573
0.0059727
0.00716041
0.00781237
-0.00180443
-0.00192879
-0.00197208
-0.00203462
-0.0020924
-0.00213833
-0.00216075
-0.00214468
-0.00207221
-0.0019216
-0.00166573
-0.0012699
-0.000689204
0.000119837
0.00122319
0.00268351
0.00451023
0.00659833
0.00851809
0.0101663
-0.0022123
-0.00235407
-0.00240796
-0.00249703
-0.00259406
-0.00269179
-0.00277728
-0.00283435
-0.00284424
-0.00278453
-0.002627
-0.00233403
-0.0018543
-0.00111678
-2.44648e-05
0.00158719
0.00383897
0.00677509
0.00990102
0.0137443
-0.002677
-0.00283231
-0.00288857
-0.00300422
-0.00314678
-0.00330741
-0.00347073
-0.00361972
-0.00373656
-0.00380115
-0.00378908
-0.00366776
-0.00338744
-0.0028649
-0.00197371
-0.000531385
0.00182692
0.00550489
0.0101813
0.0179039
-0.00321765
-0.00339378
-0.00344252
-0.00358591
-0.00376857
-0.00398958
-0.00423612
-0.00449076
-0.00473588
-0.00495574
-0.00513766
-0.00526953
-0.00533371
-0.00529381
-0.0050784
-0.00457998
-0.00337091
2.87781e-06
0.00497086
0.0180106
-0.00391894
-0.00389622
-0.00388998
-0.00401432
-0.00426387
-0.00459908
-0.00498618
-0.00539356
-0.00580034
-0.00619687
-0.00658984
-0.0070027
-0.00748256
-0.00810423
-0.00901977
-0.0103726
-0.0123142
-0.0118983
-0.0089551
0.010293
-0.00441234
-0.00491327
-0.00480931
-0.00506761
-0.00532824
-0.00567459
-0.00609089
-0.00655484
-0.00705157
-0.00757522
-0.00814648
-0.00882754
-0.00975796
-0.0111817
-0.0136772
-0.01758
-0.0257433
-0.0303278
-0.0281906
0.000310636
-0.00754002
-0.005069
-0.00476995
-0.00464491
-0.00502393
-0.00561978
-0.0063387
-0.00709012
-0.0078455
-0.00857907
-0.00933838
-0.0101845
-0.0113857
-0.0131676
-0.0168161
-0.0217897
-0.0330526
-0.0403309
-0.0383275
0.0122065
-0.00443032
-0.00735812
-0.00675268
-0.00732346
-0.0075334
-0.00791718
-0.00843294
-0.00901082
-0.00963125
-0.0102655
-0.0108844
-0.0116336
-0.0127619
-0.0144436
-0.0187323
-0.0240495
-0.0351114
-0.0371598
-0.0175125
0.0651453
-0.0286036
-0.00391937
-0.00317789
-0.00310942
-0.00363359
-0.00458392
-0.00577101
-0.00689442
-0.00803463
-0.00898423
-0.0100276
-0.010956
-0.0124413
-0.0141458
-0.0168668
-0.0185181
-0.0166854
0.00446742
0.0652175
0.200969
)
;

boundaryField
{
    movingWall
    {
        type            zeroGradient;
    }
    fixedWalls
    {
        type            zeroGradient;
    }
    frontAndBack
    {
        type            empty;
    }
}


// ************************************************************************* //
