/*--------------------------------*- C++ -*----------------------------------*\
  =========                 |
  \\      /  F ield         | OpenFOAM: The Open Source CFD Toolbox
   \\    /   O peration     | Website:  https://openfoam.org
    \\  /    A nd           | Version:  10
     \\/     M anipulation  |
\*---------------------------------------------------------------------------*/
FoamFile
{
    format      ascii;
    class       surfaceScalarField;
    location    "3.575";
    object      phi;
}
// * * * * * * * * * * * * * * * * * * * * * * * * * * * * * * * * * * * * * //

dimensions      [0 3 -1 0 0 0 0];

internalField   nonuniform List<scalar> 
760
(
-1.00208e-05
1.00208e-05
-3.00467e-05
2.00259e-05
-5.18681e-05
2.18215e-05
-7.30988e-05
2.12307e-05
-9.30026e-05
1.99037e-05
-0.000111126
1.8123e-05
-0.00012703
1.59048e-05
-0.00014026
1.32297e-05
-0.000150341
1.00813e-05
-0.000156795
6.45385e-06
-0.000159153
2.3577e-06
-0.00015698
-2.17322e-06
-0.000149927
-7.05256e-06
-0.000137787
-1.21406e-05
-0.00012055
-1.72367e-05
-9.84822e-05
-2.20676e-05
-7.22445e-05
-2.62377e-05
-4.32649e-05
-2.89796e-05
-1.5339e-05
-2.79259e-05
-1.5339e-05
-2.07085e-05
3.07293e-05
-5.5421e-05
5.47384e-05
-9.2372e-05
5.87724e-05
-0.000128055
5.69141e-05
-0.000161215
5.30637e-05
-0.000191033
4.79408e-05
-0.000216766
4.16374e-05
-0.000237692
3.41561e-05
-0.00025311
2.5499e-05
-0.000262341
1.56851e-05
-0.000264751
4.76741e-06
-0.000259823
-7.10133e-06
-0.000247105
-1.97698e-05
-0.000226408
-3.28378e-05
-0.00019783
-4.58148e-05
-0.000161868
-5.80298e-05
-0.000119585
-6.85208e-05
-7.31548e-05
-7.54096e-05
-2.79544e-05
-7.31263e-05
-4.32935e-05
-2.39808e-05
5.47102e-05
-6.34452e-05
9.42027e-05
-0.000105218
0.000100545
-0.000145448
9.71438e-05
-0.000182772
9.03885e-05
-0.0002163
8.14685e-05
-0.000245222
7.05596e-05
-0.00026876
5.76938e-05
-0.000286156
4.28955e-05
-0.000296686
2.62151e-05
-0.000299686
7.76698e-06
-0.000294441
-1.23468e-05
-0.000280488
-3.37227e-05
-0.000257543
-5.57828e-05
-0.000225615
-7.77422e-05
-0.000185156
-9.84888e-05
-0.000137269
-0.000116408
-8.43509e-05
-0.000128328
-3.24849e-05
-0.000124992
-7.57784e-05
-2.55016e-05
8.02118e-05
-6.75728e-05
0.000136274
-0.000112062
0.000145034
-0.000154925
0.000140007
-0.000194773
0.000130236
-0.000230703
0.000117399
-0.0002619
0.000101756
-0.000287567
8.33608e-05
-0.000306917
6.22454e-05
-0.000319167
3.84658e-05
-0.00032356
1.21599e-05
-0.000319304
-1.66035e-05
-0.000305669
-4.73578e-05
-0.000282144
-7.93068e-05
-0.000248515
-0.000111372
-0.00020504
-0.000141964
-0.000152741
-0.000168707
-9.42129e-05
-0.000186856
-3.63479e-05
-0.000182857
-0.000112126
-2.70889e-05
0.000107301
-7.19792e-05
0.000181164
-0.000119471
0.000192527
-0.0001653
0.000185835
-0.000208048
0.000172984
-0.000246822
0.000156173
-0.00028081
0.000135744
-0.000309214
0.000111765
-0.000331221
8.42519e-05
-0.000345983
5.32283e-05
-0.000352612
1.87892e-05
-0.000350155
-1.90613e-05
-0.000337586
-5.99265e-05
-0.000314027
-0.000102865
-0.000278833
-0.000146566
-0.000231868
-0.000188929
-0.000173952
-0.000226623
-0.000107905
-0.000252903
-4.17992e-05
-0.000248963
-0.000153926
-2.9126e-05
0.000136427
-7.75831e-05
0.000229621
-0.000128876
0.000243819
-0.000178451
0.000235411
-0.000224866
0.000219399
-0.000267241
0.000198548
-0.000304792
0.000173295
-0.000336736
0.000143708
-0.00036225
0.000109766
-0.000380431
7.14096e-05
-0.00039026
2.86182e-05
-0.000390582
-1.87393e-05
-0.000379955
-7.05537e-05
-0.000356987
-0.000125833
-0.000320373
-0.00018318
-0.000269278
-0.000240024
-0.000204042
-0.00029186
-0.000127644
-0.0003293
-4.98392e-05
-0.000326768
-0.000203765
-3.16924e-05
0.000168119
-8.45894e-05
0.000282518
-0.00014058
0.00029981
-0.000194755
0.000289586
-0.000245643
0.000270287
-0.000292406
0.000245311
-0.000334313
0.000215202
-0.000370635
0.000180031
-0.00040058
0.000139711
-0.000423219
9.40491e-05
-0.000437419
4.2818e-05
-0.000441835
-1.43227e-05
-0.000434498
-7.78907e-05
-0.000413325
-0.000147007
-0.000376022
-0.000220483
-0.000320573
-0.000295472
-0.000246283
-0.00036615
-0.000155994
-0.000419589
-6.17588e-05
-0.000421004
-0.000265524
-3.48305e-05
0.00020295
-9.31113e-05
0.000340799
-0.000154736
0.000361434
-0.000214365
0.000349215
-0.00027051
0.000326432
-0.000322404
0.000297205
-0.00036942
0.000262218
-0.00041094
0.000221551
-0.000446272
0.000175042
-0.000474536
0.000122314
-0.00049454
6.28216e-05
-0.000504813
-4.04945e-06
-0.000502807
-7.98969e-05
-0.000485569
-0.000164245
-0.000449392
-0.00025666
-0.000390344
-0.00035452
-0.000305655
-0.000450839
-0.000197189
-0.000528055
-7.99586e-05
-0.000538234
-0.000345482
-3.86098e-05
0.000241559
-0.000103309
0.000405498
-0.000171541
0.000429667
-0.000237461
0.000415134
-0.000299584
0.000388555
-0.000357262
0.000354884
-0.000410038
0.000314993
-0.000457492
0.000269005
-0.000499135
0.000216686
-0.000534268
0.000157446
-0.000561787
9.03405e-05
-0.000580111
1.42748e-05
-0.000586417
-7.35912e-05
-0.000576631
-0.000174031
-0.000545195
-0.000288096
-0.000485236
-0.000414479
-0.000390152
-0.000545923
-0.000258774
-0.000659434
-0.000109345
-0.000687662
-0.000454827
-4.3158e-05
0.000284717
-0.000115449
0.000477789
-0.000191315
0.000505533
-0.000264323
0.000488143
-0.000333038
0.00045727
-0.000396999
0.000418845
-0.000456003
0.000373997
-0.000509938
0.000322941
-0.000558666
0.000265413
-0.000601855
0.000200636
-0.000638756
0.000127241
-0.000667753
4.32712e-05
-0.000686425
-5.49189e-05
-0.000689513
-0.000170944
-0.000669308
-0.0003083
-0.000614783
-0.000469004
-0.000512791
-0.000647915
-0.000355
-0.000817225
-0.000160759
-0.000881903
-0.000615586
-4.87104e-05
0.000333428
-0.000129989
0.000559067
-0.000214575
0.00059012
-0.0002954
0.000568968
-0.000371153
0.000533022
-0.000441655
0.000489347
-0.00050706
0.000439402
-0.000567692
0.000383572
-0.000623926
0.000321647
-0.000676039
0.000252749
-0.000723958
0.00017516
-0.000766791
8.61046e-05
-0.000802818
-1.88913e-05
-0.00082653
-0.000147233
-0.000828363
-0.000306467
-0.00079226
-0.000505107
-0.000694967
-0.000745208
-0.000514285
-0.000997907
-0.000260143
-0.00113604
-0.000875729
-5.57006e-05
0.000389128
-0.000147701
0.000651067
-0.00024216
0.000684579
-0.000331401
0.000658209
-0.000414387
0.000616008
-0.000491346
0.000566306
-0.000562904
0.000510961
-0.000629942
0.00045061
-0.000693522
0.000385226
-0.000754803
0.000314031
-0.000814881
0.000235238
-0.000874351
0.000145574
-0.000932922
3.96801e-05
-0.000987456
-9.26983e-05
-0.00102812
-0.000265805
-0.00103486
-0.000498361
-0.000971578
-0.000808494
-0.000792026
-0.00117746
-0.000468149
-0.00145992
-0.00134388
-6.49665e-05
0.000454095
-0.000169913
0.000756013
-0.000275402
0.000790068
-0.000373424
0.000756231
-0.000463471
0.000706055
-0.000546346
0.000649182
-0.000623256
0.00058787
-0.00069572
0.000523074
-0.000765588
0.000455094
-0.000835108
0.000383552
-0.000906989
0.000307119
-0.00098426
0.000222845
-0.00106978
0.000125204
-0.00116714
4.65619e-06
-0.0012693
-0.000163648
-0.00136007
-0.000407585
-0.00139218
-0.000776381
-0.00127495
-0.0012947
-0.000881009
-0.00185386
-0.00222489
-7.82149e-05
0.00053231
-0.000199136
0.000876935
-0.000316451
0.000907383
-0.000423043
0.000862822
-0.000519459
0.000802471
-0.000607182
0.000736906
-0.000688011
0.000668699
-0.00076411
0.000599172
-0.000838114
0.000529099
-0.000913418
0.000458855
-0.000994697
0.000388398
-0.00108847
0.000316615
-0.00120336
0.000240095
-0.00134861
0.000149912
-0.00153592
2.36559e-05
-0.00176581
-0.000177695
-0.00198688
-0.000555314
-0.00201841
-0.00126316
-0.00152027
-0.002352
-0.00374516
-9.53861e-05
0.000627696
-0.000236346
0.00101789
-0.000367471
0.00103851
-0.000483264
0.000978615
-0.000584878
0.000904085
-0.000675248
0.000827276
-0.000757448
0.000750899
-0.000834287
0.000676011
-0.000908727
0.000603539
-0.00098449
0.000534619
-0.00106733
0.000471241
-0.00116685
0.000416127
-0.00129945
0.000372696
-0.00149031
0.00034078
-0.00177485
0.000308191
-0.00217185
0.000219309
-0.00263489
-9.22739e-05
-0.00277764
-0.00112041
-0.00202204
-0.0031076
-0.00576721
-0.000154204
0.0007819
-0.000308409
0.0011721
-0.000439363
0.00116946
-0.000552274
0.00109153
-0.00065356
0.00100537
-0.000744909
0.000918625
-0.000827775
0.000833766
-0.000903663
0.000751898
-0.00097507
0.000674946
-0.00104547
0.000605015
-0.00112124
0.000547012
-0.00121258
0.000507471
-0.00133955
0.000499662
-0.00153519
0.000536421
-0.00185121
0.000624216
-0.00229715
0.000665246
-0.00281165
0.000422224
-0.00291198
-0.00102008
-0.00191137
-0.00410821
-0.00767858
-0.000112533
0.000894433
-0.000334894
0.00139446
-0.000512007
0.00134657
-0.000650672
0.00123019
-0.00075825
0.00111295
-0.000842574
0.00100295
-0.000910588
0.000901779
-0.000966908
0.000808219
-0.0010153
0.000723342
-0.0010573
0.000647006
-0.00109625
0.000585964
-0.00113673
0.000547959
-0.001192
0.000554927
-0.00128242
0.000626837
-0.00145907
0.000800868
-0.00170492
0.000911102
-0.00204577
0.000763071
-0.00209406
-0.000971791
-0.00128638
-0.00491588
-0.00896496
-0.000394737
0.00128917
-0.000525585
0.00152531
-0.000642691
0.00146368
-0.000747653
0.00133515
-0.000809355
0.00117465
-0.000838745
0.00103234
-0.000846455
0.00090949
-0.000837983
0.000799747
-0.000820387
0.000705746
-0.000793119
0.000619738
-0.000761132
0.000553977
-0.000718092
0.000504919
-0.000664168
0.000501003
-0.000577934
0.000540602
-0.000450974
0.000673909
-0.000280895
0.000741022
-1.14586e-05
0.000493635
-3.00514e-05
-0.000953198
8.28605e-05
-0.00502879
-0.0088821
-0.00130116
0.00259033
-0.00123379
0.00145794
-0.00098984
0.00121973
-0.000650162
0.000995475
-0.000295655
0.000820146
4.89039e-05
0.000687778
0.000368943
0.000589451
0.000662201
0.000506489
0.000927585
0.000440362
0.00116563
0.000381693
0.00138894
0.00033067
0.00159433
0.000299528
0.00182702
0.000268313
0.00209493
0.000272692
0.00250892
0.00025992
0.00304897
0.00020097
0.00361875
-7.61443e-05
0.00370765
-0.0010421
0.00236849
-0.00368963
-0.00651361
0.00259033
0.00404827
0.005268
0.00626347
0.00708362
0.0077714
0.00836085
0.00886734
0.0093077
0.00968939
0.0100201
0.0103196
0.0105879
0.0108606
0.0111205
0.0113215
0.0112453
0.0102032
0.00651361
)
;

boundaryField
{
    movingWall
    {
        type            calculated;
        value           uniform 0;
    }
    fixedWalls
    {
        type            calculated;
        value           uniform 0;
    }
    frontAndBack
    {
        type            empty;
        value           nonuniform List<scalar> 0();
    }
}


// ************************************************************************* //
