/*--------------------------------*- C++ -*----------------------------------*\
  =========                 |
  \\      /  F ield         | OpenFOAM: The Open Source CFD Toolbox
   \\    /   O peration     | Website:  https://openfoam.org
    \\  /    A nd           | Version:  10
     \\/     M anipulation  |
\*---------------------------------------------------------------------------*/
FoamFile
{
    format      ascii;
    class       volVectorField;
    location    "0.575";
    object      U;
}
// * * * * * * * * * * * * * * * * * * * * * * * * * * * * * * * * * * * * * //

dimensions      [0 1 -1 0 0 0 0];

internalField   nonuniform List<vector> 
400
(
(-0.00022709 0.000224153 0)
(-0.000708714 0.000245488 0)
(-0.0012036 0.000234228 0)
(-0.00166536 0.000216016 0)
(-0.00208397 0.000192433 0)
(-0.00244938 0.00016422 0)
(-0.00275294 0.000132171 0)
(-0.00298768 9.71085e-05 0)
(-0.00314833 5.98555e-05 0)
(-0.00323128 2.12288e-05 0)
(-0.00323457 -1.79617e-05 0)
(-0.00315789 -5.68976e-05 0)
(-0.00300258 -9.47434e-05 0)
(-0.00277175 -0.000130632 0)
(-0.00247026 -0.000163666 0)
(-0.00210485 -0.00019293 0)
(-0.00168414 -0.000217527 0)
(-0.00121836 -0.000236606 0)
(-0.000717993 -0.000248465 0)
(-0.000230213 -0.000227175 0)
(-0.000260254 0.000715355 0)
(-0.000810576 0.000781497 0)
(-0.00137442 0.000745522 0)
(-0.00190027 0.000687365 0)
(-0.00237668 0.000612094 0)
(-0.00279222 0.000522143 0)
(-0.00313716 0.000420073 0)
(-0.00340372 0.000308512 0)
(-0.00358603 0.000190077 0)
(-0.00368012 6.73407e-05 0)
(-0.00368382 -5.71573e-05 0)
(-0.00359678 -0.00018086 0)
(-0.0034205 -0.000301148 0)
(-0.00315837 -0.000415293 0)
(-0.00281579 -0.000520451 0)
(-0.00240027 -0.000613704 0)
(-0.00192152 -0.000692164 0)
(-0.00139113 -0.000753052 0)
(-0.000821088 -0.00079091 0)
(-0.000263793 -0.000724912 0)
(-0.000274063 0.00125873 0)
(-0.00085355 0.00137268 0)
(-0.00144689 0.00130904 0)
(-0.00199955 0.00120638 0)
(-0.00249954 0.0010737 0)
(-0.00293502 0.000915416 0)
(-0.00329605 0.000736112 0)
(-0.00357478 0.000540433 0)
(-0.00376538 0.000332938 0)
(-0.00386392 0.000118061 0)
(-0.00386826 -9.98516e-05 0)
(-0.00377799 -0.000316443 0)
(-0.00359448 -0.00052723 0)
(-0.00332099 -0.000727512 0)
(-0.00296281 -0.000912329 0)
(-0.00252742 -0.00107653 0)
(-0.00202471 -0.00121495 0)
(-0.00146673 -0.00132254 0)
(-0.000866045 -0.00138959 0)
(-0.000278269 -0.0012759 0)
(-0.000294247 0.00183151 0)
(-0.000916172 0.00199574 0)
(-0.00155225 0.00190215 0)
(-0.00214359 0.00175175 0)
(-0.00267737 0.00155786 0)
(-0.00314119 0.00132718 0)
(-0.00352489 0.00106654 0)
(-0.00382067 0.000782731 0)
(-0.00402288 0.0004823 0)
(-0.00412772 0.000171496 0)
(-0.00413311 -0.000143628 0)
(-0.00403856 -0.000457023 0)
(-0.00384524 -0.000762443 0)
(-0.00355606 -0.00105325 0)
(-0.00317602 -0.00132231 0)
(-0.00271245 -0.00156208 0)
(-0.00217537 -0.00176482 0)
(-0.00157738 -0.00192288 0)
(-0.000932029 -0.00202178 0)
(-0.000299583 -0.00185801 0)
(-0.00032258 0.00245285 0)
(-0.0010039 0.00267104 0)
(-0.00169948 0.00254375 0)
(-0.00234432 0.00234015 0)
(-0.0029244 0.0020787 0)
(-0.00342668 0.00176888 0)
(-0.00384087 0.00142017 0)
(-0.00415942 0.00104171 0)
(-0.00437704 0.000642077 0)
(-0.00449029 0.000229261 0)
(-0.00449721 -0.000189152 0)
(-0.00439722 -0.000605631 0)
(-0.0041911 -0.00101234 0)
(-0.00388122 -0.00140077 0)
(-0.00347196 -0.00176158 0)
(-0.00297022 -0.00208454 0)
(-0.00238601 -0.00235891 0)
(-0.00173258 -0.00257376 0)
(-0.00102485 -0.00270893 0)
(-0.000329628 -0.00249149 0)
(-0.000360284 0.00314039 0)
(-0.00112041 0.00341722 0)
(-0.00189438 0.00325064 0)
(-0.00260897 0.00298596 0)
(-0.00324865 0.00264793 0)
(-0.00379973 0.00224964 0)
(-0.00425207 0.00180374 0)
(-0.00459877 0.00132203 0)
(-0.00483534 0.00081516 0)
(-0.00495896 0.000292659 0)
(-0.00496801 -0.000236663 0)
(-0.00486176 -0.000764153 0)
(-0.00464039 -0.0012807 0)
(-0.00430531 -0.00177614 0)
(-0.0038598 -0.00223885 0)
(-0.0033098 -0.00265562 0)
(-0.00266495 -0.00301201 0)
(-0.00193908 -0.00329288 0)
(-0.00114881 -0.00347091 0)
(-0.000369848 -0.00319529 0)
(-0.000409132 0.00391447 0)
(-0.00127095 0.00425555 0)
(-0.00214508 0.00404153 0)
(-0.00294743 0.00370458 0)
(-0.00366074 0.00327752 0)
(-0.00427088 0.00277826 0)
(-0.00476848 0.00222342 0)
(-0.005148 0.0016278 0)
(-0.00540642 0.00100406 0)
(-0.00554211 0.000362935 0)
(-0.00555402 -0.000286077 0)
(-0.00544126 -0.000933823 0)
(-0.00520309 -0.00157048 0)
(-0.00483937 -0.0021846 0)
(-0.00435143 -0.00276236 0)
(-0.0037434 -0.00328718 0)
(-0.00302371 -0.00374004 0)
(-0.00220643 -0.00410009 0)
(-0.00131015 -0.00433071 0)
(-0.00042236 -0.00399167 0)
(-0.000471746 0.00479972 0)
(-0.00146318 0.00521128 0)
(-0.00246316 0.00493782 0)
(-0.00337348 0.00451273 0)
(-0.00417498 0.00397961 0)
(-0.00485383 0.00336295 0)
(-0.00540253 0.00268441 0)
(-0.00581813 0.00196215 0)
(-0.00610021 0.00121064 0)
(-0.0062491 0.000441196 0)
(-0.00626477 -0.000336863 0)
(-0.00614616 -0.00111489 0)
(-0.00589117 -0.00188328 0)
(-0.00549719 -0.00263001 0)
(-0.00496237 -0.00333936 0)
(-0.0042875 -0.00399104 0)
(-0.00347843 -0.00456026 0)
(-0.00254842 -0.00501836 0)
(-0.00151808 -0.00531603 0)
(-0.000490336 -0.00490797 0)
(-0.000552082 0.00582698 0)
(-0.00170846 0.00631527 0)
(-0.00286538 0.0059644 0)
(-0.00390625 0.00542844 0)
(-0.00481053 0.00476591 0)
(-0.00556608 0.00401041 0)
(-0.00616928 0.00318998 0)
(-0.00662178 0.00232644 0)
(-0.00692738 0.00143556 0)
(-0.00708961 0.000528221 0)
(-0.00711011 -0.000387833 0)
(-0.00698767 -0.00130601 0)
(-0.00671822 -0.00221843 0)
(-0.00629545 -0.00311373 0)
(-0.00571246 -0.00397501 0)
(-0.00496432 -0.00477813 0)
(-0.00405174 -0.00549111 0)
(-0.00298519 -0.00607451 0)
(-0.00178648 -0.00646121 0)
(-0.000578645 -0.00597917 0)
(-0.000656319 0.0070366 0)
(-0.00202411 0.00760637 0)
(-0.00337629 0.00715049 0)
(-0.0045727 0.00647066 0)
(-0.00559303 0.0056465 0)
(-0.00642977 0.00472428 0)
(-0.00708651 0.00373994 0)
(-0.00757256 0.00271899 0)
(-0.00789843 0.00167749 0)
(-0.00807249 0.000624167 0)
(-0.00809901 -0.000436904 0)
(-0.00797676 -0.00150344 0)
(-0.00769889 -0.00257161 0)
(-0.00725377 -0.00363284 0)
(-0.00662676 -0.00467046 0)
(-0.00580362 -0.00565686 0)
(-0.00477568 -0.00655151 0)
(-0.0035466 -0.00730017 0)
(-0.00213681 -0.00781013 0)
(-0.000695038 -0.007252 0)
(-0.000794554 0.00848384 0)
(-0.0024374 0.00913487 0)
(-0.00403269 0.00853049 0)
(-0.00541112 0.00765804 0)
(-0.00655694 0.00662757 0)
(-0.00747265 0.00550254 0)
(-0.00817457 0.00432824 0)
(-0.00868423 0.00313324 0)
(-0.00902221 0.00193192 0)
(-0.00920401 0.000728096 0)
(-0.00923771 -0.000480854 0)
(-0.00912239 -0.00170003 0)
(-0.00884762 -0.00293302 0)
(-0.00839429 -0.00417734 0)
(-0.00773648 -0.0054196 0)
(-0.0068454 -0.00663015 0)
(-0.00569609 -0.00775903 0)
(-0.00427796 -0.00873236 0)
(-0.00260359 -0.00942034 0)
(-0.000852507 -0.00879213 0)
(-0.000984311 0.0102487 0)
(-0.00299306 0.0109672 0)
(-0.00489096 0.0101443 0)
(-0.00647667 0.00900625 0)
(-0.00774857 0.00770729 0)
(-0.00872911 0.00633324 0)
(-0.00945582 0.0049396 0)
(-0.0099689 0.00355555 0)
(-0.0103036 0.00218986 0)
(-0.0104853 0.000837448 0)
(-0.0105271 -0.000515037 0)
(-0.0104289 -0.00188417 0)
(-0.0101762 -0.00328523 0)
(-0.00974035 -0.00472677 0)
(-0.00907957 -0.00620393 0)
(-0.00814308 -0.00768978 0)
(-0.00687918 -0.00912557 0)
(-0.0052495 -0.010413 0)
(-0.00324471 -0.0113682 0)
(-0.00107434 -0.0106976 0)
(-0.00125846 0.0124551 0)
(-0.00376791 0.0131909 0)
(-0.00603898 0.0120357 0)
(-0.00784936 0.0105218 0)
(-0.00922999 0.00886832 0)
(-0.0102404 0.00718863 0)
(-0.0109523 0.00554554 0)
(-0.011434 0.00396242 0)
(-0.0117403 0.00243619 0)
(-0.0119089 0.000947336 0)
(-0.0119593 -0.000533104 0)
(-0.0118926 -0.00203815 0)
(-0.0116902 -0.00360027 0)
(-0.011313 -0.0052456 0)
(-0.0106995 -0.00698594 0)
(-0.00976707 -0.00880662 0)
(-0.00842096 -0.0106483 0)
(-0.00657154 -0.0123853 0)
(-0.00416248 -0.0137527 0)
(-0.00140632 -0.013127 0)
(-0.00168521 0.0153072 0)
(-0.00490144 0.0159178 0)
(-0.00761451 0.0142463 0)
(-0.00964557 0.0121893 0)
(-0.0110818 0.0100666 0)
(-0.0120519 0.00801689 0)
(-0.012682 0.00609817 0)
(-0.0130783 0.00431637 0)
(-0.0133187 0.0026472 0)
(-0.0134546 0.00104948 0)
(-0.0135126 -0.000527036 0)
(-0.0134961 -0.002137 0)
(-0.0133836 -0.00383616 0)
(-0.013126 -0.00567667 0)
(-0.0126406 -0.007699 0)
(-0.0118054 -0.00991688 0)
(-0.0104598 -0.0122904 0)
(-0.00841708 -0.0146817 0)
(-0.00554884 -0.0166979 0)
(-0.0019491 -0.0163508 0)
(-0.00241238 0.0192059 0)
(-0.00665668 0.0192917 0)
(-0.00983302 0.0167968 0)
(-0.012031 0.0139477 0)
(-0.0134026 0.0112137 0)
(-0.0142088 0.00872905 0)
(-0.0146528 0.00652227 0)
(-0.014885 0.00456198 0)
(-0.0150072 0.00278871 0)
(-0.0150832 0.00113112 0)
(-0.0151458 -0.000487684 0)
(-0.0152017 -0.00214806 0)
(-0.0152299 -0.00393457 0)
(-0.0151758 -0.00593437 0)
(-0.0149397 -0.00823286 0)
(-0.0143584 -0.0108987 0)
(-0.0131881 -0.0139493 0)
(-0.0110593 -0.0172883 0)
(-0.00777548 -0.0203362 0)
(-0.0029259 -0.0208571 0)
(-0.0038066 0.0243079 0)
(-0.00959907 0.0233538 0)
(-0.0130373 0.0196255 0)
(-0.0152313 0.0156495 0)
(-0.0163005 0.0121463 0)
(-0.0167432 0.00918205 0)
(-0.0168489 0.00670808 0)
(-0.0168116 0.00462362 0)
(-0.0167493 0.00281615 0)
(-0.0167307 0.00117483 0)
(-0.0167915 -0.000406486 0)
(-0.0169427 -0.00203353 0)
(-0.0171696 -0.00382158 0)
(-0.017424 -0.00590005 0)
(-0.0176045 -0.00841763 0)
(-0.0175213 -0.0115357 0)
(-0.0168513 -0.0154006 0)
(-0.0149095 -0.0200857 0)
(-0.0115883 -0.0247329 0)
(-0.00485075 -0.0274319 0)
(-0.00614945 0.0347435 0)
(-0.0142647 0.0287497 0)
(-0.0176276 0.0227288 0)
(-0.0195094 0.017049 0)
(-0.019863 0.0125974 0)
(-0.0196383 0.00916189 0)
(-0.0192013 0.00650745 0)
(-0.0187661 0.00440871 0)
(-0.0184446 0.00267712 0)
(-0.0182937 0.0011584 0)
(-0.0183415 -0.000279437 0)
(-0.0186035 -0.00175704 0)
(-0.0190824 -0.00341834 0)
(-0.0197569 -0.00543117 0)
(-0.0205589 -0.00802166 0)
(-0.0213225 -0.0115036 0)
(-0.0217167 -0.0162977 0)
(-0.0205125 -0.0229999 0)
(-0.0182964 -0.0303279 0)
(-0.0087272 -0.0390952 0)
(-0.0136346 0.0402187 0)
(-0.0256593 0.0323798 0)
(-0.0246404 0.0245124 0)
(-0.0251136 0.0172499 0)
(-0.0238778 0.012058 0)
(-0.0224861 0.00838761 0)
(-0.0212292 0.00576943 0)
(-0.0202503 0.00383746 0)
(-0.0195935 0.00233239 0)
(-0.019269 0.00106929 0)
(-0.0192773 -9.5178e-05 0)
(-0.0196399 -0.00129158 0)
(-0.0203876 -0.0026533 0)
(-0.0215517 -0.00436542 0)
(-0.0231727 -0.00669344 0)
(-0.0252472 -0.0100486 0)
(-0.0277165 -0.0149874 0)
(-0.0283885 -0.0231253 0)
(-0.0308907 -0.0313495 0)
(-0.0163437 -0.0511818 0)
(-0.0225666 0.0881364 0)
(-0.0317832 0.0378193 0)
(-0.0260126 0.0255995 0)
(-0.0232808 0.0154278 0)
(-0.019059 0.0095688 0)
(-0.0157282 0.0062192 0)
(-0.013232 0.00410322 0)
(-0.0114724 0.00267003 0)
(-0.0103287 0.00162513 0)
(-0.00971261 0.000790127 0)
(-0.00957796 4.38324e-05 0)
(-0.00991562 -0.000723689 0)
(-0.01076 -0.00161823 0)
(-0.0121891 -0.00282538 0)
(-0.0142971 -0.00469224 0)
(-0.0170615 -0.00796309 0)
(-0.0211226 -0.0139079 0)
(-0.0210096 -0.0265478 0)
(-0.031425 -0.0445691 0)
(-0.00932402 -0.102682 0)
(0.0976875 0.0740989 0)
(0.0937854 0.0280781 0)
(0.140446 0.0160306 0)
(0.152217 0.00868682 0)
(0.161119 0.00471983 0)
(0.167025 0.00277834 0)
(0.170704 0.00172832 0)
(0.173074 0.00109831 0)
(0.174579 0.000681717 0)
(0.17544 0.000374476 0)
(0.175769 0.000118525 0)
(0.175597 -0.00012909 0)
(0.174883 -0.000413588 0)
(0.173463 -0.000806441 0)
(0.170919 -0.00146758 0)
(0.1669 -0.00283036 0)
(0.157483 -0.0055739 0)
(0.153005 -0.0128985 0)
(0.0985532 -0.0233956 0)
(0.10797 -0.0699563 0)
)
;

boundaryField
{
    movingWall
    {
        type            fixedValue;
        value           uniform (1 0 0);
    }
    fixedWalls
    {
        type            noSlip;
    }
    frontAndBack
    {
        type            empty;
    }
}


// ************************************************************************* //
