/*--------------------------------*- C++ -*----------------------------------*\
  =========                 |
  \\      /  F ield         | OpenFOAM: The Open Source CFD Toolbox
   \\    /   O peration     | Website:  https://openfoam.org
    \\  /    A nd           | Version:  10
     \\/     M anipulation  |
\*---------------------------------------------------------------------------*/
FoamFile
{
    format      ascii;
    class       volVectorField;
    location    "2.7";
    object      U;
}
// * * * * * * * * * * * * * * * * * * * * * * * * * * * * * * * * * * * * * //

dimensions      [0 1 -1 0 0 0 0];

internalField   nonuniform List<vector> 
475
(
(0.967897 0.0164498 0)
(0.984274 0.00438891 0)
(0.939341 0.0334204 0)
(0.975081 -0.00550511 0)
(0.908575 0.0303615 0)
(0.996135 0.0106208 0)
(1.01556 0.0115871 0)
(1.02396 0.0133996 0)
(1.04328 0.00292447 0)
(1.05564 -0.000105163 0)
(0.998886 0.00238619 0)
(1.01219 -0.00582465 0)
(1.0236 -0.0089263 0)
(1.03755 -0.0105263 0)
(1.05706 -0.0170973 0)
(0.999637 -0.0101018 0)
(1.01154 -0.0203273 0)
(1.02263 -0.021488 0)
(1.03167 -0.0253613 0)
(1.04132 -0.0302647 0)
(0.981407 -0.00962208 0)
(0.968087 -0.0202001 0)
(0.953192 -0.0213003 0)
(0.932613 -0.0231894 0)
(0.902564 -0.0238127 0)
(0.946539 -0.0281729 0)
(0.920651 -0.0256844 0)
(0.918057 -0.0272801 0)
(0.950723 -0.0365791 0)
(0.995949 -0.0754061 0)
(1.05656 -0.135922 0)
(1.11087 -0.207391 0)
(1.1148 -0.298771 0)
(1.09176 -0.378769 0)
(1.03752 -0.414103 0)
(0.936065 -0.401794 0)
(0.832056 -0.317466 0)
(0.722136 -0.196336 0)
(0.60572 -0.110103 0)
(0.527166 -0.0597242 0)
(0.502123 -0.0174111 0)
(0.512634 0.0218733 0)
(0.535846 0.0484279 0)
(0.556132 0.0580179 0)
(0.568411 0.054902 0)
(0.574248 0.0454696 0)
(0.576447 0.0346676 0)
(0.577045 0.0251319 0)
(0.577111 0.0177032 0)
(0.577084 0.0122853 0)
(0.577092 0.00846495 0)
(0.577145 0.00581257 0)
(0.57722 0.00398205 0)
(0.577302 0.0027212 0)
(0.577375 0.00185358 0)
(0.577439 0.00125739 0)
(0.577489 0.000848685 0)
(0.57753 0.000569425 0)
(0.57756 0.000379354 0)
(0.577582 0.000250634 0)
(0.577598 0.000164025 0)
(0.577609 0.000105973 0)
(0.577618 6.78257e-05 0)
(0.577622 4.23792e-05 0)
(0.577626 2.65715e-05 0)
(0.577629 1.59364e-05 0)
(0.57763 1.02178e-05 0)
(0.577632 6.28995e-06 0)
(0.577632 4.94507e-06 0)
(0.577633 4.57907e-06 0)
(1.06766 -0.0174907 0)
(1.07215 -0.0239232 0)
(1.08796 -0.0238543 0)
(1.10679 -0.0284155 0)
(1.11949 -0.0625424 0)
(1.13855 -0.130659 0)
(1.14303 -0.20117 0)
(1.10409 -0.267431 0)
(1.04842 -0.319418 0)
(0.9644 -0.327791 0)
(0.832062 -0.286796 0)
(0.713664 -0.186258 0)
(0.633772 -0.0586018 0)
(0.569133 0.0113668 0)
(0.516511 0.00968108 0)
(0.483521 -0.00718461 0)
(0.475817 -0.00601695 0)
(0.487262 0.00787259 0)
(0.506513 0.0204776 0)
(0.52557 0.0261514 0)
(0.540884 0.0257878 0)
(0.552041 0.0221501 0)
(0.559794 0.0174974 0)
(0.56507 0.0131079 0)
(0.568643 0.00949496 0)
(0.57107 0.00673457 0)
(0.572729 0.00471344 0)
(0.573866 0.00326935 0)
(0.574647 0.00225205 0)
(0.57518 0.0015415 0)
(0.575547 0.00104813 0)
(0.575794 0.000707498 0)
(0.575964 0.000473701 0)
(0.576077 0.000314374 0)
(0.576154 0.000206497 0)
(0.576206 0.000134016 0)
(0.57624 8.57275e-05 0)
(0.576264 5.40881e-05 0)
(0.576279 3.31515e-05 0)
(0.576289 2.04273e-05 0)
(0.576297 1.17912e-05 0)
(0.5763 7.3984e-06 0)
(0.576304 4.49303e-06 0)
(0.576306 3.52576e-06 0)
(0.576308 3.59707e-06 0)
(1.0671 -0.0216557 0)
(1.07226 -0.0367436 0)
(1.07829 -0.0576956 0)
(1.08227 -0.065692 0)
(1.08643 -0.0970233 0)
(1.08648 -0.1456 0)
(1.06834 -0.188127 0)
(1.02181 -0.243756 0)
(0.964711 -0.2785 0)
(0.901194 -0.245481 0)
(0.810692 -0.191686 0)
(0.725075 -0.143175 0)
(0.692784 -0.0724675 0)
(0.694639 -0.00663814 0)
(0.685933 0.0198204 0)
(0.650908 0.0187941 0)
(0.606602 0.0154684 0)
(0.573705 0.018179 0)
(0.555684 0.0224359 0)
(0.548628 0.0236961 0)
(0.5481 0.0216222 0)
(0.550547 0.0177733 0)
(0.553791 0.0136143 0)
(0.556823 0.00995793 0)
(0.559307 0.00707432 0)
(0.561214 0.00493623 0)
(0.562629 0.00340548 0)
(0.563658 0.00233062 0)
(0.564401 0.00158423 0)
(0.56493 0.00106967 0)
(0.56531 0.000717033 0)
(0.565576 0.00047683 0)
(0.565767 0.000313789 0)
(0.565898 0.00020406 0)
(0.56599 0.000130568 0)
(0.566053 8.19361e-05 0)
(0.566094 5.03403e-05 0)
(0.566124 2.99075e-05 0)
(0.566142 1.69857e-05 0)
(0.566155 9.57124e-06 0)
(0.566163 4.47309e-06 0)
(0.566168 2.49221e-06 0)
(0.566172 1.27739e-06 0)
(0.566174 9.91225e-07 0)
(0.566177 1.84414e-06 0)
(1.04767 -0.0304829 0)
(1.04675 -0.0397288 0)
(1.04073 -0.0525598 0)
(1.0312 -0.0599147 0)
(1.01319 -0.0745946 0)
(0.990362 -0.100463 0)
(0.947467 -0.133015 0)
(0.871849 -0.161738 0)
(0.78648 -0.174819 0)
(0.688593 -0.159032 0)
(0.573975 -0.110654 0)
(0.474864 -0.0571595 0)
(0.418906 -0.0110384 0)
(0.399338 0.0285051 0)
(0.397622 0.0568259 0)
(0.402158 0.0684403 0)
(0.410975 0.0655689 0)
(0.423283 0.0542796 0)
(0.437905 0.0411618 0)
(0.453092 0.0298233 0)
(0.466936 0.0210573 0)
(0.478314 0.0145945 0)
(0.487016 0.00997379 0)
(0.493367 0.00674572 0)
(0.497866 0.00452703 0)
(0.500995 0.00301892 0)
(0.503147 0.00200165 0)
(0.504615 0.0013189 0)
(0.505612 0.000862753 0)
(0.506284 0.000559378 0)
(0.506737 0.000358783 0)
(0.507036 0.000227171 0)
(0.507236 0.000140971 0)
(0.507365 8.56169e-05 0)
(0.50745 4.99444e-05 0)
(0.507505 2.76497e-05 0)
(0.507539 1.43126e-05 0)
(0.507562 5.84937e-06 0)
(0.507575 1.5668e-06 0)
(0.507583 -4.89105e-07 0)
(0.507588 -1.99821e-06 0)
(0.50759 -1.66084e-06 0)
(0.507593 -1.42403e-06 0)
(0.507593 -1.10695e-06 0)
(0.507595 2.20457e-07 0)
(0.875663 -0.0237364 0)
(0.842647 -0.0305649 0)
(0.802201 -0.0302683 0)
(0.761457 -0.0348413 0)
(0.703693 -0.0475645 0)
(0.641363 -0.0500955 0)
(0.555105 -0.0771756 0)
(0.413996 -0.105056 0)
(0.269828 -0.0689976 0)
(0.166957 -0.0114759 0)
(0.102957 0.0154935 0)
(0.0690711 0.0167204 0)
(0.0601475 0.0129071 0)
(0.0718731 0.0121972 0)
(0.0991639 0.0102145 0)
(0.133776 0.00612833 0)
(0.168016 0.00179548 0)
(0.196848 -0.00063026 0)
(0.218882 -0.00116081 0)
(0.235013 -0.000859061 0)
(0.246595 -0.000451653 0)
(0.254788 -0.000165443 0)
(0.260498 -7.35409e-06 0)
(0.264426 6.33977e-05 0)
(0.267101 8.39841e-05 0)
(0.268906 7.93959e-05 0)
(0.270114 6.4302e-05 0)
(0.270916 4.64733e-05 0)
(0.271444 2.99449e-05 0)
(0.271786 1.63517e-05 0)
(0.272005 6.25905e-06 0)
(0.272142 -5.71695e-07 0)
(0.272226 -4.73011e-06 0)
(0.272275 -6.68835e-06 0)
(0.272303 -7.54688e-06 0)
(0.272316 -7.26755e-06 0)
(0.272322 -6.68088e-06 0)
(0.272323 -5.9294e-06 0)
(0.272322 -4.65321e-06 0)
(0.27232 -3.92905e-06 0)
(0.272317 -3.03291e-06 0)
(0.272316 -2.02474e-06 0)
(0.272314 -1.67647e-06 0)
(0.272312 -1.10392e-06 0)
(0.272312 -2.6163e-07 0)
(-0.0127142 -0.0183598 0)
(-0.048615 2.83071e-05 0)
(-0.127617 0.037648 0)
(-0.253815 0.0641169 0)
(-0.381661 0.0621955 0)
(-0.471213 0.0441706 0)
(-0.502513 0.015073 0)
(-0.476605 -0.0166607 0)
(-0.394754 -0.0472362 0)
(-0.267177 -0.0678802 0)
(-0.111978 -0.0739463 0)
(0.0448315 -0.0644646 0)
(0.178597 -0.0455287 0)
(0.273597 -0.0237574 0)
(0.328018 -0.00538071 0)
(0.349715 0.00616057 0)
(0.350249 0.0109371 0)
(0.340024 0.0113893 0)
(0.326284 0.00972968 0)
(0.312921 0.00741395 0)
(0.301607 0.00524369 0)
(0.292771 0.00352241 0)
(0.286238 0.00227998 0)
(0.281594 0.00143614 0)
(0.278389 0.00088576 0)
(0.276226 0.000536034 0)
(0.274791 0.000317522 0)
(0.273853 0.00018315 0)
(0.273248 0.000101874 0)
(0.272861 5.34571e-05 0)
(0.272619 2.49855e-05 0)
(0.272469 8.66262e-06 0)
(0.272379 -2.06278e-07 0)
(0.272327 -4.77426e-06 0)
(0.272299 -6.47236e-06 0)
(0.272284 -6.92771e-06 0)
(0.272278 -6.47113e-06 0)
(0.272276 -5.54929e-06 0)
(0.272277 -4.91374e-06 0)
(0.27228 -3.76047e-06 0)
(0.272282 -2.97497e-06 0)
(0.272285 -2.43574e-06 0)
(0.272286 -1.53847e-06 0)
(0.272288 -9.42049e-07 0)
(0.272288 -2.95187e-07 0)
(-0.0238951 0.0894728 0)
(-0.0879915 0.122309 0)
(-0.181136 0.166247 0)
(-0.277297 0.177167 0)
(-0.353197 0.146205 0)
(-0.390417 0.0861236 0)
(-0.385466 0.00132536 0)
(-0.335592 -0.0928238 0)
(-0.243976 -0.17626 0)
(-0.115337 -0.235957 0)
(0.0354527 -0.255135 0)
(0.188248 -0.23376 0)
(0.325047 -0.18138 0)
(0.431077 -0.118865 0)
(0.498616 -0.0637903 0)
(0.533224 -0.0237948 0)
(0.546937 0.00100386 0)
(0.549562 0.0135026 0)
(0.546686 0.0177671 0)
(0.541244 0.0174773 0)
(0.534982 0.0150598 0)
(0.528935 0.0119568 0)
(0.523653 0.00896909 0)
(0.519343 0.00645819 0)
(0.515998 0.00451265 0)
(0.513494 0.00308351 0)
(0.511672 0.00207154 0)
(0.510376 0.00137303 0)
(0.50947 0.000898948 0)
(0.508843 0.000581448 0)
(0.508416 0.000371217 0)
(0.508127 0.000233268 0)
(0.507935 0.0001441 0)
(0.507806 8.65437e-05 0)
(0.507723 5.04434e-05 0)
(0.507669 2.79926e-05 0)
(0.507634 1.38955e-05 0)
(0.507613 6.33218e-06 0)
(0.507599 1.42779e-06 0)
(0.507591 -9.12268e-07 0)
(0.507586 -1.57628e-06 0)
(0.507584 -1.94139e-06 0)
(0.507582 -1.68275e-06 0)
(0.507581 -8.86066e-07 0)
(0.507579 3.02723e-07 0)
(-0.00113829 0.0793777 0)
(-0.0186343 0.133595 0)
(-0.0418967 0.191967 0)
(-0.0636171 0.205038 0)
(-0.0689324 0.163665 0)
(-0.0571987 0.0831312 0)
(-0.0231128 -0.0315679 0)
(0.0352849 -0.159819 0)
(0.119677 -0.279557 0)
(0.219393 -0.366554 0)
(0.320719 -0.397739 0)
(0.411105 -0.371608 0)
(0.491109 -0.296331 0)
(0.559378 -0.19482 0)
(0.604441 -0.101616 0)
(0.620831 -0.0389861 0)
(0.617736 -0.00514499 0)
(0.607911 0.010702 0)
(0.598986 0.016853 0)
(0.592363 0.0180409 0)
(0.587173 0.0166989 0)
(0.582801 0.0141935 0)
(0.579072 0.0113671 0)
(0.575959 0.008711 0)
(0.573444 0.00645692 0)
(0.571479 0.00466594 0)
(0.569988 0.00330635 0)
(0.568881 0.00230698 0)
(0.568076 0.00158862 0)
(0.567495 0.00108101 0)
(0.567086 0.000727355 0)
(0.566795 0.000483765 0)
(0.566596 0.000318073 0)
(0.566456 0.000206184 0)
(0.566361 0.000131695 0)
(0.566297 8.26837e-05 0)
(0.566253 5.03616e-05 0)
(0.566225 3.02519e-05 0)
(0.566204 1.70681e-05 0)
(0.566192 9.25416e-06 0)
(0.566184 4.72515e-06 0)
(0.566179 2.36498e-06 0)
(0.566175 1.04015e-06 0)
(0.566173 1.13694e-06 0)
(0.56617 1.92037e-06 0)
(0.0245312 0.143615 0)
(0.0782346 0.175833 0)
(0.13815 0.237904 0)
(0.20062 0.234084 0)
(0.264954 0.173996 0)
(0.32669 0.068208 0)
(0.402175 -0.0663926 0)
(0.477439 -0.204044 0)
(0.547596 -0.329416 0)
(0.606936 -0.427832 0)
(0.650375 -0.462965 0)
(0.675268 -0.423024 0)
(0.676794 -0.344394 0)
(0.676437 -0.239733 0)
(0.685539 -0.124361 0)
(0.687218 -0.0329622 0)
(0.673016 0.0161259 0)
(0.650056 0.0327418 0)
(0.627966 0.0339205 0)
(0.611238 0.0299991 0)
(0.59989 0.0250687 0)
(0.592478 0.0203027 0)
(0.587617 0.0159828 0)
(0.58434 0.0122281 0)
(0.582055 0.00910861 0)
(0.580422 0.00662841 0)
(0.57924 0.00473042 0)
(0.578382 0.0033226 0)
(0.577764 0.00230377 0)
(0.57732 0.00158026 0)
(0.577008 0.00107384 0)
(0.576787 0.000723283 0)
(0.576635 0.00048305 0)
(0.576528 0.0003196 0)
(0.576456 0.00020934 0)
(0.576407 0.000135674 0)
(0.576372 8.64378e-05 0)
(0.57635 5.4552e-05 0)
(0.576334 3.34241e-05 0)
(0.576324 2.03299e-05 0)
(0.576317 1.19091e-05 0)
(0.576313 7.41456e-06 0)
(0.57631 4.36257e-06 0)
(0.576308 3.5766e-06 0)
(0.576306 3.65071e-06 0)
(0.118295 -0.0493512 0)
(0.10942 0.00454789 0)
(0.271282 0.0457668 0)
(0.399615 0.0599977 0)
(0.527546 0.0270935 0)
(0.646464 -0.0511481 0)
(0.750238 -0.164882 0)
(0.81909 -0.290484 0)
(0.86813 -0.387975 0)
(0.882113 -0.459131 0)
(0.854618 -0.480943 0)
(0.816357 -0.40912 0)
(0.755729 -0.297392 0)
(0.685096 -0.198698 0)
(0.64514 -0.107436 0)
(0.636075 -0.0256286 0)
(0.635599 0.0287055 0)
(0.631303 0.0513816 0)
(0.621492 0.052747 0)
(0.609256 0.0445838 0)
(0.598249 0.0345052 0)
(0.590145 0.0257031 0)
(0.584902 0.0188576 0)
(0.581789 0.0137362 0)
(0.580036 0.00994505 0)
(0.579072 0.00715 0)
(0.578539 0.00509948 0)
(0.578231 0.00360602 0)
(0.578045 0.00252778 0)
(0.577923 0.00175647 0)
(0.57784 0.00120982 0)
(0.57778 0.000825915 0)
(0.577738 0.000558818 0)
(0.577706 0.000374523 0)
(0.577684 0.000248488 0)
(0.577668 0.000163145 0)
(0.577656 0.000105559 0)
(0.577649 6.76645e-05 0)
(0.577643 4.23294e-05 0)
(0.577639 2.6475e-05 0)
(0.577637 1.59341e-05 0)
(0.577635 1.02156e-05 0)
(0.577634 6.24092e-06 0)
(0.577634 4.95586e-06 0)
(0.577633 4.60004e-06 0)
)
;

boundaryField
{
    inlet
    {
        type            fixedValue;
        value           uniform (1 0 0);
    }
    outlet
    {
        type            zeroGradient;
    }
    upperWall
    {
        type            noSlip;
    }
    lowerWall
    {
        type            noSlip;
    }
    frontAndBack
    {
        type            empty;
    }
}


// ************************************************************************* //
