/*--------------------------------*- C++ -*----------------------------------*\
  =========                 |
  \\      /  F ield         | OpenFOAM: The Open Source CFD Toolbox
   \\    /   O peration     | Website:  https://openfoam.org
    \\  /    A nd           | Version:  10
     \\/     M anipulation  |
\*---------------------------------------------------------------------------*/
FoamFile
{
    format      ascii;
    class       volScalarField;
    location    "3.65";
    object      p;
}
// * * * * * * * * * * * * * * * * * * * * * * * * * * * * * * * * * * * * * //

dimensions      [0 2 -2 0 0 0 0];

internalField   nonuniform List<scalar> 
400
(
8.48219e-11
-3.17801e-05
-1.20988e-05
3.28621e-05
0.000108974
0.000216747
0.000356332
0.000527578
0.000729478
0.000959774
0.00121457
0.00148797
0.00177177
0.00205534
0.00232583
0.00256875
0.00276859
0.00291078
0.00299352
0.00297242
3.18199e-05
-1.139e-06
1.93736e-05
6.1977e-05
0.000133908
0.000236258
0.000369575
0.000534067
0.000729092
0.000952763
0.00120156
0.00146968
0.00174968
0.00203096
0.00230066
0.00254412
0.00274541
0.00288983
0.00297662
0.00295417
8.65897e-06
-2.9124e-05
-1.02563e-05
2.97447e-05
9.88619e-05
0.000198417
0.00032934
0.000492339
0.000687323
0.000912964
0.00116627
0.0014425
0.00173374
0.00202935
0.00231581
0.00257718
0.00279546
0.00295329
0.00304914
0.00302252
-4.4772e-05
-8.68125e-05
-7.01862e-05
-3.35808e-05
3.19077e-05
0.000127996
0.000256235
0.000418097
0.000614362
0.000844634
0.00110682
0.00139672
0.00170751
0.00202821
0.00234411
0.00263694
0.00288537
0.00306751
0.00318003
0.00315148
-0.00013423
-0.00018104
-0.000167331
-0.000134913
-7.37779e-05
1.83268e-05
0.000143769
0.000305048
0.000504141
0.000741968
0.00101779
0.00132854
0.00166834
0.00202621
0.00238633
0.00272754
0.00302327
0.00324438
0.00338394
0.00335522
-0.000260071
-0.00031273
-0.000302803
-0.000275787
-0.000220371
-0.000133631
-1.21788e-05
0.000147797
0.000349834
0.000596637
0.000889361
0.00122678
0.00160509
0.00201356
0.00243538
0.00284593
0.00321171
0.00349237
0.00367424
0.00364837
-0.000422639
-0.000482506
-0.000477499
-0.000457689
-0.000410227
-0.000331413
-0.000216634
-6.04618e-05
0.000142623
0.000397675
0.000708451
0.0010764
0.00150177
0.00197467
0.0024783
0.00298468
0.00345163
0.00382223
0.00407002
0.00405431
-0.000622668
-0.000691352
-0.000692725
-0.000682578
-0.000646295
-0.000579343
-0.000475719
-0.000328095
-0.000128519
0.000131067
0.000457747
0.00085516
0.00133545
0.00188584
0.00249355
0.00312873
0.00373956
0.00424651
0.00459804
0.0046107
-0.000861039
-0.000940364
-0.000949845
-0.00095247
-0.000931644
-0.000882028
-0.000796135
-0.000664544
-0.000476478
-0.000220004
0.000117716
0.000550645
0.00107614
0.00171132
0.00244508
0.00324845
0.00406091
0.00477599
0.0052936
0.00537979
-0.00113875
-0.0012307
-0.00125012
-0.00126915
-0.00126907
-0.00124385
-0.00118457
-0.00107969
-0.000915583
-0.000676425
-0.000344284
9.98259e-05
0.00067316
0.00139622
0.00227359
0.00328774
0.00437676
0.00540865
0.00619952
0.00646967
-0.00145711
-0.00156371
-0.00159458
-0.00163389
-0.00166062
-0.00166831
-0.00164674
-0.00158251
-0.00145939
-0.00125781
-0.000954296
-0.000521487
7.00587e-05
0.000864774
0.0018855
0.00314411
0.00459747
0.00610359
0.00736008
0.00807195
-0.00181827
-0.00194125
-0.00198403
-0.0020471
-0.00210698
-0.00215712
-0.00218625
-0.0021795
-0.0021188
-0.00198182
-0.00174027
-0.00135732
-0.000784131
2.2328e-05
0.0011398
0.00263493
0.0045271
0.00671477
0.0087499
0.01055
-0.00222659
-0.0023664
-0.00241902
-0.00250791
-0.00260675
-0.00270923
-0.0028031
-0.00287261
-0.00289915
-0.00286005
-0.00272629
-0.00245858
-0.00200254
-0.00128309
-0.000197639
0.00142835
0.00374141
0.0068063
0.0101278
0.0142399
-0.00269116
-0.00284345
-0.00289695
-0.00301085
-0.00315423
-0.0033196
-0.00349264
-0.00365714
-0.00379589
-0.00388913
-0.00391242
-0.00383278
-0.0035997
-0.00312875
-0.00228377
-0.000877376
0.00148439
0.00527416
0.0101992
0.0183118
-0.00323252
-0.00340503
-0.00344924
-0.00358855
-0.0037694
-0.00399311
-0.00424879
-0.00452075
-0.00479267
-0.00504976
-0.00528012
-0.00547261
-0.00561147
-0.0056644
-0.00557271
-0.00524377
-0.00424734
-0.000979323
0.00409678
0.0175189
-0.00393356
-0.00390587
-0.00389019
-0.00400473
-0.00424722
-0.00458162
-0.0049767
-0.00540303
-0.00584154
-0.00628385
-0.00673772
-0.00722896
-0.00781037
-0.00856942
-0.00969245
-0.011368
-0.0138565
-0.0138027
-0.010552
0.00893288
-0.00442254
-0.00491425
-0.0047981
-0.0050407
-0.00528904
-0.0056304
-0.00605223
-0.00653517
-0.00706624
-0.0076414
-0.00828242
-0.0090546
-0.0101064
-0.0116934
-0.0144638
-0.0187364
-0.0276852
-0.0326958
-0.0295846
-0.000810056
-0.00756744
-0.00508616
-0.00476108
-0.00460493
-0.00495764
-0.00553788
-0.00625511
-0.00702157
-0.00781119
-0.00860037
-0.00943627
-0.0103793
-0.0117096
-0.0136392
-0.0175621
-0.0228491
-0.0350481
-0.042546
-0.0373899
0.0124413
-0.00444216
-0.00735633
-0.0067157
-0.00724331
-0.00741376
-0.00777001
-0.00827495
-0.00886705
-0.00952338
-0.0102204
-0.0109234
-0.0117656
-0.0130278
-0.0148093
-0.0192728
-0.0247904
-0.0357012
-0.0373312
-0.0163163
0.0670582
-0.0286866
-0.00395896
-0.00316073
-0.00303246
-0.00350461
-0.00441696
-0.00558813
-0.00671914
-0.00789098
-0.00890236
-0.0100312
-0.0110635
-0.0126711
-0.0145111
-0.0173346
-0.0190564
-0.0170969
0.00484461
0.0667936
0.203351
)
;

boundaryField
{
    movingWall
    {
        type            zeroGradient;
    }
    fixedWalls
    {
        type            zeroGradient;
    }
    frontAndBack
    {
        type            empty;
    }
}


// ************************************************************************* //
