/*--------------------------------*- C++ -*----------------------------------*\
  =========                 |
  \\      /  F ield         | OpenFOAM: The Open Source CFD Toolbox
   \\    /   O peration     | Website:  https://openfoam.org
    \\  /    A nd           | Version:  10
     \\/     M anipulation  |
\*---------------------------------------------------------------------------*/
FoamFile
{
    format      ascii;
    class       surfaceScalarField;
    location    "1.775";
    object      phi;
}
// * * * * * * * * * * * * * * * * * * * * * * * * * * * * * * * * * * * * * //

dimensions      [0 3 -1 0 0 0 0];

internalField   nonuniform List<scalar> 
760
(
-1.43009e-05
1.43008e-05
-3.41488e-05
1.9848e-05
-5.38277e-05
1.96789e-05
-7.22471e-05
1.84194e-05
-8.89166e-05
1.66695e-05
-0.000103431
1.45144e-05
-0.000115432
1.20007e-05
-0.000124608
9.17652e-06
-0.000130701
6.09324e-06
-0.000133508
2.80641e-06
-0.000132885
-6.23039e-07
-0.000128757
-4.12825e-06
-0.00012113
-7.62616e-06
-0.000110105
-1.10259e-05
-9.58808e-05
-1.42237e-05
-7.87754e-05
-1.71053e-05
-5.92288e-05
-1.95466e-05
-3.78548e-05
-2.13741e-05
-1.59923e-05
-2.18624e-05
-1.59923e-05
-2.05187e-05
3.48195e-05
-4.7749e-05
4.70783e-05
-7.4649e-05
4.65788e-05
-9.97899e-05
4.35603e-05
-0.00012249
3.93695e-05
-0.000142193
3.42178e-05
-0.000158418
2.82257e-05
-0.000170756
2.15139e-05
-0.000178871
1.42085e-05
-0.000182503
6.43864e-06
-0.000181493
-1.63281e-06
-0.000175738
-9.88348e-06
-0.000165267
-1.80969e-05
-0.000150222
-2.60709e-05
-0.000130879
-3.35669e-05
-0.000107665
-4.03196e-05
-8.11729e-05
-4.60386e-05
-5.22318e-05
-5.03152e-05
-2.25727e-05
-5.15215e-05
-3.8565e-05
-2.20749e-05
5.68944e-05
-5.13187e-05
7.63222e-05
-8.01657e-05
7.54258e-05
-0.000107104
7.04984e-05
-0.000131414
6.36801e-05
-0.000152514
5.53171e-05
-0.000169898
4.56101e-05
-0.000183142
3.47579e-05
-0.000191898
2.29644e-05
-0.000195902
1.04429e-05
-0.000194948
-2.58656e-06
-0.000188935
-1.58966e-05
-0.000177874
-2.91582e-05
-0.000161885
-4.20602e-05
-0.000141231
-5.42202e-05
-0.000116343
-6.52076e-05
-8.78379e-05
-7.45442e-05
-5.65978e-05
-8.15553e-05
-2.44916e-05
-8.36277e-05
-6.30566e-05
-2.35205e-05
8.04149e-05
-5.47167e-05
0.000107518
-8.54663e-05
0.000106175
-0.000114166
9.91977e-05
-0.000140062
8.95768e-05
-0.000162552
7.78068e-05
-0.000181119
6.41773e-05
-0.00019533
4.89685e-05
-0.000204827
3.24614e-05
-0.000209327
1.49429e-05
-0.000208618
-3.29589e-06
-0.00020254
-2.19742e-05
-0.000191069
-4.06291e-05
-0.000174281
-5.88487e-05
-0.000152396
-7.61047e-05
-0.00012582
-9.17833e-05
-9.51797e-05
-0.000105185
-6.14197e-05
-0.000115315
-2.65937e-05
-0.000118454
-8.96502e-05
-2.54946e-05
0.000105909
-5.93325e-05
0.000141356
-9.26552e-05
0.000139498
-0.000123729
0.000130271
-0.000151755
0.000117603
-0.000176107
0.000102159
-0.000196259
8.43292e-05
-0.000211773
6.44824e-05
-0.000222285
4.29738e-05
-0.000227498
2.01551e-05
-0.000227172
-3.62152e-06
-0.000221088
-2.80585e-05
-0.000209155
-5.2562e-05
-0.000191374
-7.66293e-05
-0.000167892
-9.9587e-05
-0.000139059
-0.000120616
-0.000105497
-0.000138747
-6.82309e-05
-0.000152581
-2.9585e-05
-0.0001571
-0.000119235
-2.81102e-05
0.00013402
-6.54281e-05
0.000178674
-0.000102122
0.000176192
-0.000136285
0.000164434
-0.000167061
0.000148379
-0.000193802
0.000128899
-0.00021598
0.000106507
-0.000233165
8.1667e-05
-0.000244996
5.48052e-05
-0.000251165
2.63242e-05
-0.000251409
-3.37724e-06
-0.00024542
-3.40476e-05
-0.000233018
-6.49646e-05
-0.000214084
-9.55625e-05
-0.00018864
-0.000125032
-0.000156929
-0.000152327
-0.000119532
-0.000176145
-7.75606e-05
-0.000194552
-3.371e-05
-0.00020095
-0.000152945
-3.14569e-05
0.000165477
-7.32057e-05
0.000220423
-0.000114157
0.000217144
-0.00015218
0.000202458
-0.000186356
0.000182555
-0.000216021
0.000158565
-0.000240667
0.000131153
-0.000259892
0.000100892
-0.00027336
6.82735e-05
-0.000280766
3.37294e-05
-0.000281832
-2.31077e-06
-0.000276133
-3.97464e-05
-0.000263367
-7.77309e-05
-0.000243236
-0.000115693
-0.000215554
-0.000152714
-0.000180369
-0.000187512
-0.000138143
-0.000218371
-9.00509e-05
-0.000242644
-3.92796e-05
-0.000251722
-0.000192225
-3.56595e-05
0.000201136
-8.29396e-05
0.000267703
-0.000129144
0.000263348
-0.00017186
0.000245174
-0.000210103
0.000220798
-0.000243219
0.000191681
-0.000270752
0.000158685
-0.000292368
0.000122508
-0.000307794
8.36992e-05
-0.000316747
4.2683e-05
-0.000318973
-8.47538e-08
-0.000313889
-4.48311e-05
-0.000301042
-9.05778e-05
-0.000279865
-0.00013687
-0.000249846
-0.000182734
-0.000210687
-0.000226671
-0.000162578
-0.000266479
-0.000106672
-0.00029855
-4.67848e-05
-0.000311609
-0.00023901
-4.09019e-05
0.000242038
-9.5022e-05
0.000321823
-0.000147616
0.000315941
-0.000195924
0.000293482
-0.000238904
0.000263778
-0.000275955
0.000228732
-0.000306733
0.000189463
-0.00033104
0.000146815
-0.000348725
0.000101384
-0.000359592
5.355e-05
-0.000363342
3.66516e-06
-0.000359397
-4.8776e-05
-0.000347015
-0.00010296
-0.000325264
-0.000158621
-0.000293127
-0.000214871
-0.000249723
-0.000270075
-0.000194691
-0.00032151
-0.000128932
-0.00036431
-5.70362e-05
-0.000383504
-0.000296046
-4.74636e-05
0.000289502
-0.000110025
0.000384385
-0.000170327
0.000376242
-0.000225185
0.000348341
-0.000273538
0.000312131
-0.000314913
0.000270107
-0.000349174
0.000223724
-0.000376358
0.000174
-0.000396529
0.000121555
-0.00040965
6.66706e-05
-0.000415447
9.46289e-06
-0.000413364
-5.08592e-05
-0.000402348
-0.000113976
-0.000380984
-0.000179985
-0.000347505
-0.00024835
-0.000300067
-0.000317513
-0.00023727
-0.000384307
-0.000159241
-0.00044234
-7.1439e-05
-0.000471306
-0.000367485
-5.57841e-05
0.000345286
-0.000128805
0.000457406
-0.000198361
0.000445798
-0.000260767
0.000410748
-0.000315027
0.000366391
-0.000360929
0.000316009
-0.000398694
0.000261489
-0.000428738
0.000204044
-0.000451472
0.000144289
-0.000467127
8.23261e-05
-0.000475598
1.7933e-05
-0.000476349
-5.01079e-05
-0.000468071
-0.000122254
-0.000448774
-0.000199282
-0.000415667
-0.000281457
-0.000365364
-0.000367815
-0.000294585
-0.000455086
-0.00020158
-0.000535345
-9.25807e-05
-0.000580305
-0.000460066
-6.65848e-05
0.00041187
-0.00015267
0.000543491
-0.000233302
0.00052643
-0.000304235
0.00048168
-0.000364722
0.000426878
-0.000415031
0.000366317
-0.000455961
0.000302419
-0.000488512
0.000236595
-0.000513624
0.000169401
-0.000531959
0.000100662
-0.000543722
2.96958e-05
-0.000548549
-4.52806e-05
-0.00054497
-0.000125833
-0.000530422
-0.00021383
-0.00050086
-0.000311019
-0.000450673
-0.000418002
-0.000373262
-0.000532498
-0.000262769
-0.000645838
-0.000125571
-0.000717503
-0.000585636
-8.11122e-05
0.000492983
-0.000183683
0.000646062
-0.000277509
0.000620256
-0.000357795
0.000561966
-0.000424427
0.00049351
-0.000478487
0.000420377
-0.000521673
0.000345605
-0.00055585
0.000270772
-0.000582725
0.000196276
-0.000603594
0.000121531
-0.000619165
4.52661e-05
-0.000629491
-3.49546e-05
-0.0006332
-0.000122124
-0.000627367
-0.000219663
-0.000606689
-0.000331697
-0.000562719
-0.000461972
-0.000483688
-0.000611529
-0.000354934
-0.000774591
-0.000181367
-0.000891071
-0.000767003
-0.000101688
0.00059467
-0.000225254
0.000769629
-0.000334554
0.000729556
-0.000424584
0.000651996
-0.000496554
0.00056548
-0.000552844
0.000476667
-0.000596525
0.000389286
-0.000630677
0.000304924
-0.000658039
0.000223638
-0.000680791
0.000144283
-0.000700359
6.48348e-05
-0.000717558
-1.77563e-05
-0.000731631
-0.00010805
-0.000739907
-0.000211388
-0.000736423
-0.000335181
-0.000709825
-0.000488569
-0.000641813
-0.000679542
-0.000500208
-0.000916196
-0.000285314
-0.00110597
-0.00105232
-0.000131119
0.000725789
-0.000281891
0.000920401
-0.000409416
0.000857081
-0.000508937
0.000751517
-0.000584257
0.0006408
-0.000639938
0.000532349
-0.000681134
0.000430482
-0.000712551
0.000336341
-0.000738202
0.000249289
-0.000761346
0.000167427
-0.000784373
8.78624e-05
-0.000809452
7.32267e-06
-0.000836833
-8.06697e-05
-0.000865633
-0.000182587
-0.000891095
-0.00030972
-0.000899926
-0.000479738
-0.000869311
-0.000710157
-0.000734369
-0.00105114
-0.000483027
-0.00135731
-0.00153534
-0.000190614
0.000916403
-0.000368811
0.0010986
-0.000512185
0.00100046
-0.000617394
0.000856725
-0.000691605
0.000715011
-0.000741694
0.000582437
-0.000775607
0.000464395
-0.000800109
0.000360843
-0.000820657
0.000269837
-0.00084163
0.0001884
-0.000866802
0.000113034
-0.000898519
3.90407e-05
-0.000940812
-3.83774e-05
-0.000995772
-0.000127627
-0.0010635
-0.000241995
-0.00113127
-0.000411969
-0.00118441
-0.000657013
-0.00110322
-0.00113233
-0.000846724
-0.0016138
-0.00238207
-0.000220232
0.00113664
-0.000465198
0.00134356
-0.00064321
0.00117847
-0.000755514
0.000969029
-0.000821496
0.000780992
-0.000856481
0.000617423
-0.000874351
0.000482264
-0.000884642
0.000371134
-0.000894039
0.000279234
-0.000907351
0.000201711
-0.00092854
0.000134223
-0.000962504
7.30048e-05
-0.00101659
1.57103e-05
-0.00109461
-4.96066e-05
-0.00121443
-0.000122176
-0.00135784
-0.000268558
-0.00155994
-0.000454916
-0.00158449
-0.00110778
-0.00131779
-0.0018805
-0.00369986
-0.000528879
0.00166551
-0.000720116
0.0015348
-0.000843625
0.00130198
-0.000910889
0.00103629
-0.000926475
0.000796578
-0.000915075
0.000606024
-0.000893158
0.000460347
-0.000869992
0.000347968
-0.000852247
0.00026149
-0.000844846
0.00019431
-0.000852757
0.000142134
-0.000880566
0.000100814
-0.00093563
7.07747e-05
-0.00102636
4.11237e-05
-0.00117117
2.26281e-05
-0.00136229
-7.74329e-05
-0.00159131
-0.000225898
-0.00167341
-0.00102567
-0.00125525
-0.00229867
-0.0049551
-0.00113371
0.00279923
-0.00104482
0.00144591
-0.00083703
0.00109419
-0.000593488
0.000792751
-0.000356322
0.000559413
-0.000148833
0.000398534
2.13462e-05
0.000290168
0.000154179
0.000215135
0.000254652
0.000161016
0.00032791
0.000121053
0.000377901
9.21426e-05
0.000409621
6.90939e-05
0.000426186
5.42097e-05
0.000427193
4.01165e-05
0.000435759
1.40625e-05
0.000394871
-3.65455e-05
0.000446668
-0.000277695
0.000257828
-0.000836834
0.000262716
-0.00230356
-0.00469239
0.00279923
0.00424513
0.00533932
0.00613207
0.00669149
0.00709002
0.00738019
0.00759532
0.00775634
0.00787739
0.00796953
0.00803863
0.00809284
0.00813295
0.00814702
0.00811047
0.00783278
0.00699594
0.00469239
)
;

boundaryField
{
    movingWall
    {
        type            calculated;
        value           uniform 0;
    }
    fixedWalls
    {
        type            calculated;
        value           uniform 0;
    }
    frontAndBack
    {
        type            empty;
        value           nonuniform List<scalar> 0();
    }
}


// ************************************************************************* //
