/*--------------------------------*- C++ -*----------------------------------*\
  =========                 |
  \\      /  F ield         | OpenFOAM: The Open Source CFD Toolbox
   \\    /   O peration     | Website:  https://openfoam.org
    \\  /    A nd           | Version:  10
     \\/     M anipulation  |
\*---------------------------------------------------------------------------*/
FoamFile
{
    format      ascii;
    class       volScalarField;
    location    "3.5";
    object      p;
}
// * * * * * * * * * * * * * * * * * * * * * * * * * * * * * * * * * * * * * //

dimensions      [0 2 -2 0 0 0 0];

internalField   nonuniform List<scalar> 
8000
(
-5.15619e-07
-1.76879e-05
8.7576e-06
6.12191e-05
0.000144821
0.000259875
0.00040613
0.000582769
0.000788021
0.00101879
0.00127079
0.00153777
0.00181143
0.00208187
0.00233739
0.00256533
0.00275276
0.00288796
0.00296943
0.00296652
1.31655e-05
-4.42015e-06
2.22987e-05
7.30159e-05
0.000153862
0.000265459
0.000407835
0.000580434
0.000781755
0.00100908
0.00125815
0.00152269
0.00179543
0.00206598
0.00232261
0.00255243
0.00274212
0.00287964
0.00296416
0.0029607
-2.16191e-05
-4.20797e-05
-1.64554e-05
3.26016e-05
0.000111845
0.000222084
0.000363666
0.000536434
0.000739315
0.000970007
0.00122466
0.0014978
0.00178135
0.00206505
0.00233654
0.00258182
0.00278596
0.00293491
0.00302726
0.0030223
-8.90307e-05
-0.000112196
-8.80489e-05
-4.11021e-05
3.61847e-05
0.000144964
0.000286099
0.000460053
0.000666436
0.000903643
0.00116843
0.00145551
0.00175776
0.00206427
0.00236159
0.00263382
0.00286337
0.00303281
0.00313931
0.00313493
-0.000195095
-0.000221479
-0.000199253
-0.000154845
-7.97595e-05
2.76187e-05
0.000168839
0.000345202
0.00055726
0.000804415
0.00108441
0.0013927
0.00172227
0.0020623
0.00239815
0.00271136
0.00298032
0.00318213
0.00331121
0.00330928
-0.000341572
-0.00037197
-0.000352252
-0.000311143
-0.000238997
-0.00013362
7.40266e-06
0.000186444
0.000405303
0.000664757
0.000963988
0.00129999
0.00166536
0.00205075
0.0024399
0.00281119
0.00313756
0.00338784
0.00355146
0.00355464
-0.000530449
-0.000565845
-0.000549446
-0.000512855
-0.000445054
-0.00034318
-0.00020377
-2.31194e-05
0.000202156
0.000474649
0.000795487
0.00116334
0.00157348
0.00201663
0.00247589
0.00292633
0.00333395
0.0036556
0.00387162
0.00388586
-0.000764265
-0.000805826
-0.000793814
-0.000763468
-0.000702188
-0.000606382
-0.000471389
-0.000291922
-6.26491e-05
0.000221353
0.000563894
0.00096653
0.00142772
0.00194046
0.00248832
0.00304357
0.00356417
0.00399071
0.00428653
0.00432413
-0.00104614
-0.00109519
-0.00108883
-0.00106695
-0.00101516
-0.000929172
-0.000803005
-0.000629611
-0.000401391
-0.000110544
0.000250326
0.00068713
0.00120215
0.00179348
0.00244845
0.00313864
0.00381386
0.00439488
0.0048137
0.00490161
-0.00138002
-0.00143795
-0.00143853
-0.00142768
-0.00138909
-0.00131783
-0.00120662
-0.00104657
-0.00082764
-0.000538819
-0.000168407
0.000295151
0.000861853
0.00153388
0.00231097
0.00316831
0.00405062
0.00485829
0.00547022
0.00566845
-0.0017712
-0.00183926
-0.00184772
-0.00185045
-0.00182917
-0.00177855
-0.00169006
-0.00155304
-0.00135514
-0.00108216
-0.000717945
-0.000244421
0.000357117
0.00110343
0.00200638
0.00305834
0.00420788
0.00534368
0.00626297
0.0067012
-0.00222739
-0.00230621
-0.00232234
-0.00234049
-0.0023405
-0.00231687
-0.00226002
-0.00215778
-0.00199594
-0.00175776
-0.0014232
-0.000967802
-0.000361921
0.000429635
0.00143502
0.00268709
0.00415608
0.00575206
0.00715702
0.00811741
-0.00276094
-0.00284901
-0.00287009
-0.00290355
-0.00292763
-0.00293696
-0.00292095
-0.0028663
-0.0027578
-0.00257768
-0.0023043
-0.00190967
-0.00135638
-0.000594544
0.000434592
0.00184998
0.0036454
0.00584774
0.00798712
0.0101098
-0.00339539
-0.00348445
-0.00350163
-0.00354617
-0.00359462
-0.00364124
-0.00367399
-0.00367875
-0.00364051
-0.00354274
-0.00336599
-0.00308422
-0.00265807
-0.00202123
-0.00105549
0.000378384
0.00231568
0.00513858
0.00829563
0.0126599
-0.00416342
-0.00424536
-0.00424368
-0.004291
-0.00435529
-0.00443396
-0.00451614
-0.00458719
-0.00463257
-0.00463931
-0.00459584
-0.00448892
-0.00429725
-0.00397628
-0.0034403
-0.00254613
-0.00075333
0.00259802
0.00687781
0.0151702
-0.00521489
-0.00509028
-0.00501117
-0.00501208
-0.00509478
-0.00523133
-0.00539332
-0.00555467
-0.00569824
-0.00581858
-0.00592077
-0.00601583
-0.00612167
-0.0062438
-0.00636209
-0.00628099
-0.00566561
-0.00244454
0.00199617
0.016162
-0.00627685
-0.00645471
-0.00627176
-0.00629998
-0.00633291
-0.00641964
-0.00655352
-0.00671495
-0.00689452
-0.00708924
-0.00731825
-0.00761906
-0.00807108
-0.00877129
-0.00984897
-0.0111385
-0.0131543
-0.0110548
-0.00696937
0.0160389
-0.0100002
-0.00727055
-0.00687942
-0.00649809
-0.00652715
-0.00673622
-0.00704713
-0.00738337
-0.00772197
-0.00805006
-0.00841276
-0.00885596
-0.0095439
-0.0105852
-0.0125057
-0.0145751
-0.0194071
-0.0181043
-0.0141264
0.0214096
-0.00998876
-0.0108821
-0.00975496
-0.00962339
-0.00923483
-0.00906998
-0.00903143
-0.00908586
-0.00921962
-0.00939584
-0.00965521
-0.010063
-0.0107926
-0.0120345
-0.0146192
-0.0176007
-0.0245091
-0.0224958
-0.0145894
0.0484169
-0.0338269
-0.00868044
-0.0075866
-0.00666185
-0.00638476
-0.00667501
-0.00720427
-0.00772455
-0.008257
-0.00870352
-0.00924105
-0.00977546
-0.0106955
-0.0116713
-0.0135037
-0.0139093
-0.0134197
0.00309844
0.0402664
0.145714
1.88367e-06
-2.40077e-05
1.47196e-06
5.33807e-05
0.000137363
0.000253275
0.000400701
0.000578871
0.000785926
0.00101899
0.00127343
0.00154303
0.00181961
0.00209308
0.0023516
0.00258224
0.00277153
0.00290676
0.00298682
0.00297196
2.59151e-05
-6.8031e-07
2.54932e-05
7.52933e-05
0.000155728
0.00026712
0.000409387
0.000582006
0.000783506
0.00101121
0.00126092
0.00152644
0.0018002
0.00207203
0.00233007
0.00256122
0.00275168
0.00288858
0.00297192
0.00295545
-5.93363e-06
-3.6593e-05
-1.15649e-05
3.64256e-05
0.000115103
0.000224963
0.000366255
0.000538861
0.000741755
0.000972684
0.00122782
0.00150176
0.00178639
0.00207146
0.0023445
0.00259129
0.00279634
0.00294464
0.00303568
0.0030158
-7.06452e-05
-0.000104796
-8.12398e-05
-3.54642e-05
4.11381e-05
0.000149399
0.00029009
0.00046372
0.000669958
0.000907261
0.00117245
0.0014604
0.00176374
0.00207172
0.00237076
0.00264472
0.00287538
0.00304413
0.00314915
0.00312781
-0.000174444
-0.000212627
-0.000190959
-0.000147764
-7.33899e-05
3.34415e-05
0.000174195
0.000350221
0.00056214
0.000809427
0.00108989
0.00139912
0.00173014
0.00207205
0.0024101
0.00272556
0.00299606
0.00319722
0.0033246
0.00330305
-0.000318478
-0.000361651
-0.000342425
-0.000302535
-0.000231082
-0.000126225
1.43717e-05
0.000193143
0.000411963
0.000671687
0.000971543
0.00130837
0.00167615
0.00206414
0.00245633
0.00283081
0.00315953
0.00340944
0.00357116
0.00355173
-0.000504377
-0.000553734
-0.000537726
-0.000502351
-0.000435214
-0.000333818
-0.000194769
-1.42868e-05
0.000211106
0.00048411
0.000805932
0.00117527
0.00158847
0.00203525
0.00249895
0.00295424
0.00336582
0.00368789
0.0039018
0.0038891
-0.000734466
-0.000791431
-0.000779673
-0.000750547
-0.000689913
-0.000594557
-0.00045986
-0.000280443
-5.08532e-05
0.000233999
0.000578076
0.000982739
0.00144837
0.00196634
0.00252092
0.00308397
0.00361163
0.0040406
0.00433444
0.00433986
-0.00101163
-0.00107783
-0.00107156
-0.00105093
-0.000999816
-0.000914292
-0.000788399
-0.000614957
-0.000386203
-9.40909e-05
0.000269167
0.00071052
0.00122985
0.00182898
0.00249449
0.00319759
0.00388585
0.00447416
0.00489229
0.00494365
-0.00133948
-0.00141669
-0.00141716
-0.00140767
-0.00136987
-0.00129921
-0.00118835
-0.00102823
-0.000808605
-0.000518151
-0.00014477
0.000323485
0.000896429
0.00158161
0.00237546
0.00325442
0.00416097
0.00498746
0.00560269
0.00576832
-0.00172276
-0.00181276
-0.00182091
-0.00182525
-0.00180509
-0.0017554
-0.00166754
-0.00153062
-0.001332
-0.00105709
-0.000689183
-0.00020954
0.00040165
0.00116602
0.00209536
0.00318271
0.00437683
0.00555629
0.0064926
0.00693896
-0.00216819
-0.00227247
-0.0022881
-0.00230842
-0.00231023
-0.00228827
-0.00223271
-0.00213108
-0.00196876
-0.00172848
-0.00138937
-0.000925506
-0.000304793
0.000506698
0.00155209
0.00285858
0.00440776
0.00609697
0.00756177
0.00867946
-0.00268614
-0.00280477
-0.00282537
-0.00286223
-0.00288947
-0.00290188
-0.00288848
-0.00283554
-0.00272733
-0.00254546
-0.00226722
-0.00186283
-0.00129238
-0.000505153
0.00058927
0.00206926
0.00399647
0.00636814
0.00867639
0.0114117
-0.00329589
-0.00342284
-0.00343906
-0.0034896
-0.00354476
-0.00359804
-0.00363639
-0.0036452
-0.00360899
-0.00351058
-0.00332942
-0.00303709
-0.00259015
-0.00191535
-0.000916814
0.000536673
0.00267672
0.00576728
0.00917893
0.0149983
-0.00402194
-0.00416492
-0.00416477
-0.00422554
-0.00429995
-0.00438789
-0.0044781
-0.00455578
-0.00460587
-0.00461411
-0.00456843
-0.00445381
-0.00424742
-0.00390499
-0.00335121
-0.00241711
-0.000741183
0.00269976
0.00653733
0.017166
-0.00498607
-0.00491882
-0.00485543
-0.00487997
-0.00499287
-0.00515751
-0.00534356
-0.00552385
-0.00568299
-0.00581219
-0.00591595
-0.00600553
-0.00610305
-0.0062301
-0.00641805
-0.00660314
-0.00667495
-0.0044563
-0.00261281
0.0145041
-0.00583413
-0.00624702
-0.0060799
-0.0061903
-0.00627141
-0.00640194
-0.00656628
-0.00675057
-0.00694687
-0.00715037
-0.00737914
-0.00767282
-0.00812313
-0.00886883
-0.0101872
-0.0121839
-0.0162657
-0.0165677
-0.0168428
0.00915971
-0.00932209
-0.00676062
-0.00643788
-0.00616539
-0.00633564
-0.00665566
-0.0070528
-0.00745026
-0.00783196
-0.00817889
-0.00854199
-0.0089613
-0.00963398
-0.0106992
-0.0129544
-0.0158463
-0.0232159
-0.0254662
-0.026792
0.0166503
-0.00709565
-0.00969339
-0.00903771
-0.00938178
-0.00931989
-0.00931808
-0.00939288
-0.00951031
-0.00967235
-0.00984576
-0.010049
-0.0103778
-0.0110169
-0.0121266
-0.0151111
-0.0185737
-0.0275705
-0.0284652
-0.0181126
0.0534523
-0.0312531
-0.00663657
-0.00595947
-0.00565809
-0.00581182
-0.00634188
-0.00706154
-0.00769756
-0.00833816
-0.00880927
-0.0093885
-0.00984707
-0.01081
-0.0117509
-0.0137673
-0.014517
-0.0133699
0.00421785
0.0531324
0.175046
6.65292e-06
-2.23326e-05
2.52781e-06
5.39734e-05
0.000137862
0.000253988
0.000401889
0.000580653
0.000788602
0.00102275
0.00127862
0.00154994
0.00182849
0.00210402
0.00236454
0.00259691
0.00278732
0.00292261
0.00300196
0.0029824
3.4942e-05
4.72698e-06
3.03917e-05
7.94753e-05
0.000159499
0.000270664
0.000412867
0.000585591
0.000787405
0.00101566
0.00126617
0.00153277
0.00180781
0.00208108
0.00234059
0.00257305
0.00276434
0.00290115
0.00298394
0.00296312
5.08962e-06
-2.96792e-05
-5.19989e-06
4.19468e-05
0.0001201
0.000229616
0.000370721
0.000543318
0.000746421
0.000977819
0.00123372
0.00150873
0.00179471
0.00208135
0.00235605
0.00260437
0.00281045
0.00295876
0.00304927
0.00302441
-5.73985e-05
-9.60361e-05
-7.30673e-05
-2.82377e-05
4.77381e-05
0.000155541
0.000295928
0.000469444
0.000675806
0.000913525
0.00117947
0.00146859
0.00177344
0.00208325
0.00238429
0.00266015
0.0028922
0.00306117
0.00316574
0.00313883
-0.000158983
-0.000202044
-0.000180983
-0.00013881
-6.51299e-05
4.11792e-05
0.000181575
0.000357458
0.000569509
0.000817271
0.00109862
0.00140923
0.00174216
0.00208644
0.00242713
0.00274524
0.0030178
0.00321962
0.00334674
0.00331885
-0.000300487
-0.000348986
-0.000330373
-0.000291579
-0.000220877
-0.000116594
2.36147e-05
0.000202247
0.000421258
0.000681593
0.000982566
0.00132113
0.00169149
0.00208269
0.0024786
0.00285695
0.00318896
0.00344038
0.00360223
0.00357522
-0.000483273
-0.000538491
-0.000523098
-0.000488912
-0.000422609
-0.000321861
-0.000183248
-2.90185e-06
0.000222761
0.000496572
0.0008199
0.00119168
0.00160821
0.00205942
0.0025285
0.00298969
0.00340666
0.0037319
0.00394688
0.00392534
-0.000709421
-0.000772886
-0.000761759
-0.000733965
-0.000674309
-0.00057974
-0.000445585
-0.000266345
-3.64251e-05
0.000249448
0.000595509
0.00100378
0.00147349
0.00199766
0.00256016
0.00313236
0.00366906
0.00410437
0.0044013
0.00439712
-0.000981504
-0.00105497
-0.00104937
-0.00103032
-0.000980442
-0.00089597
-0.000770845
-0.000597725
-0.00036866
-7.53767e-05
0.000290092
0.000734583
0.00126076
0.00186886
0.00254608
0.0032634
0.00396686
0.0045676
0.00499287
0.00503639
-0.00130268
-0.00138809
-0.00138936
-0.00138183
-0.00134573
-0.00127661
-0.00116696
-0.0010075
-0.000787728
-0.000495994
-0.000119725
0.000353579
0.000933934
0.00163112
0.00244179
0.0033425
0.00427435
0.00512481
0.00575527
0.00592288
-0.00167702
-0.00177636
-0.00178553
-0.00179253
-0.00177487
-0.00172757
-0.00164174
-0.00150617
-0.00130792
-0.00103203
-0.00066123
-0.000176136
0.000444461
0.00122446
0.00217705
0.00329636
0.00453127
0.0057552
0.00672425
0.00720195
-0.00211011
-0.00222514
-0.00224227
-0.00226642
-0.00227212
-0.00225404
-0.00220192
-0.00210291
-0.00194207
-0.00170166
-0.00136011
-0.000890818
-0.00026282
0.000569859
0.00164496
0.00299475
0.0046064
0.00637359
0.00790672
0.00913823
-0.00261045
-0.00274172
-0.00276471
-0.00280743
-0.0028409
-0.00285968
-0.00285213
-0.00280405
-0.00269935
-0.00251907
-0.00223969
-0.00182997
-0.00124617
-0.000442991
0.000682103
0.00221083
0.00422333
0.00671879
0.00916348
0.0121693
-0.00319354
-0.00333541
-0.00335544
-0.00341531
-0.00348101
-0.00354529
-0.00359387
-0.00361139
-0.00358212
-0.00348843
-0.00330904
-0.0030145
-0.00255995
-0.00187322
-0.000855932
0.000627804
0.00285286
0.00610016
0.0097154
0.0159949
-0.00387956
-0.00404499
-0.00405173
-0.00412871
-0.00421938
-0.00432409
-0.00443042
-0.00452243
-0.0045846
-0.00460254
-0.0045634
-0.00445277
-0.00424892
-0.00390992
-0.00336645
-0.00247839
-0.000853863
0.00262593
0.00649658
0.0176536
-0.00477714
-0.00473296
-0.00468296
-0.0047305
-0.00487153
-0.00506592
-0.0052815
-0.00548889
-0.00567022
-0.00581691
-0.00593359
-0.0060332
-0.00614306
-0.00629615
-0.00655555
-0.0069116
-0.00738134
-0.0055954
-0.00381467
0.0134277
-0.00549174
-0.00596211
-0.0058205
-0.00598547
-0.006115
-0.0062958
-0.00650926
-0.00673778
-0.00696911
-0.00719767
-0.00744357
-0.00775033
-0.00822057
-0.00901948
-0.0105106
-0.0128743
-0.0179491
-0.0194545
-0.0190368
0.00666004
-0.0089042
-0.00637817
-0.00605847
-0.00584123
-0.00608588
-0.00648908
-0.00696723
-0.00743446
-0.00787279
-0.00825881
-0.00864652
-0.00907423
-0.00976349
-0.0108689
-0.0133313
-0.0166522
-0.0248429
-0.0283036
-0.0275959
0.0157942
-0.0060117
-0.00884485
-0.00832938
-0.00882679
-0.0088786
-0.00905472
-0.00929486
-0.00953905
-0.00979682
-0.0100313
-0.0102578
-0.0105836
-0.0112159
-0.0123051
-0.015519
-0.0193233
-0.0284212
-0.0289922
-0.0141336
0.0589995
-0.0304494
-0.00579063
-0.00514692
-0.00499838
-0.00532824
-0.00601471
-0.006876
-0.0076217
-0.00836099
-0.00887847
-0.00949943
-0.00995335
-0.0109355
-0.0119455
-0.0139687
-0.0147784
-0.0125315
0.00708489
0.0618112
0.187228
1.21068e-05
-1.87481e-05
5.57233e-06
5.64728e-05
0.000140187
0.000256386
0.000404577
0.000583909
0.00079265
0.00102784
0.00128497
0.00155778
0.00183798
0.00211526
0.0023775
0.00261135
0.00280276
0.00293826
0.00301729
0.00299536
4.26821e-05
1.0622e-05
3.57838e-05
8.42475e-05
0.000163915
0.000274918
0.000417141
0.000590084
0.000792337
0.00102127
0.00127272
0.00154052
0.00181695
0.00209175
0.0023528
0.00258662
0.00277881
0.00291578
0.00299829
0.0029749
1.43705e-05
-2.24154e-05
1.52032e-06
4.79729e-05
0.000125687
0.000234949
0.000375978
0.000548704
0.000752171
0.000984201
0.00124102
0.00151727
0.00180475
0.00209308
0.00236955
0.00261947
0.00282669
0.0029753
0.0030656
0.00303783
-4.62161e-05
-8.7012e-05
-6.4621e-05
-2.05666e-05
5.48804e-05
0.000162332
0.000302548
0.000476107
0.000682774
0.000921108
0.00118802
0.00147851
0.0017851
0.00209694
0.00240015
0.0026781
0.00291173
0.0030813
0.00318584
0.0031557
-0.000145751
-0.000191125
-0.000170679
-0.000129357
-5.62779e-05
4.96096e-05
0.000189776
0.00036567
0.000578037
0.000826488
0.00110897
0.00142124
0.00175634
0.00210326
0.00244689
0.00276791
0.00304289
0.00324593
0.00337339
0.00334195
-0.000284849
-0.000335844
-0.000317887
-0.000280028
-0.000210005
-0.000106214
3.37153e-05
0.000212348
0.000431724
0.000692886
0.000995254
0.00133591
0.00170913
0.00210391
0.00250395
0.00288661
0.00322245
0.00347624
0.0036392
0.00360834
-0.000464658
-0.000522594
-0.000507912
-0.000474775
-0.000409262
-0.000309111
-0.000170857
9.45859e-06
0.000235535
0.000510337
0.000835382
0.0012098
0.00163018
0.00208636
0.00256138
0.00302908
0.00345227
0.003782
0.0039996
0.00397426
-0.000687018
-0.000753476
-0.000743145
-0.000716576
-0.00065789
-0.000564102
-0.000430465
-0.000251355
-2.10234e-05
0.000265971
0.000614017
0.00102529
0.00150042
0.00203154
0.00260264
0.00318476
0.00373165
0.00417528
0.00447774
0.00447084
-0.000954191
-0.00103099
-0.00102633
-0.00100878
-0.00096018
-0.000876817
-0.000752516
-0.000579765
-0.000350412
-5.59715e-05
0.000311553
0.00075749
0.00129282
0.00191057
0.00260006
0.00333234
0.00405236
0.00466836
0.00510482
0.00514952
-0.00126889
-0.00135806
-0.00136051
-0.00135493
-0.00132063
-0.00125318
-0.00114491
-0.000986309
-0.000766582
-0.000473674
-9.42847e-05
0.000386536
0.000971991
0.00168079
0.00250826
0.00343099
0.00438923
0.00526715
0.00591978
0.00610001
-0.00163451
-0.00173817
-0.00174892
-0.00175859
-0.00174358
-0.00169891
-0.00161542
-0.00148162
-0.0012842
-0.00100773
-0.000634326
-0.000143786
0.000485185
0.0012799
0.00225461
0.00340492
0.00468048
0.00595214
0.0069653
0.0074845
-0.00205561
-0.00217572
-0.00219507
-0.00222308
-0.00223281
-0.00221891
-0.00217074
-0.00207505
-0.00191644
-0.00167668
-0.00133358
-0.000859797
-0.000223028
0.000625956
0.00172734
0.00311705
0.00478761
0.00663381
0.00825245
0.0095971
-0.00253904
-0.00267648
-0.00270278
-0.00275124
-0.00279099
-0.00281643
-0.0028154
-0.00277314
-0.002673
-0.00249551
-0.00221648
-0.00180376
-0.0012126
-0.000396337
0.000753397
0.00232477
0.00441209
0.00702736
0.00963503
0.0128968
-0.00309747
-0.00324705
-0.00327205
-0.00334071
-0.00341641
-0.00349146
-0.0035507
-0.00357799
-0.00355697
-0.00346957
-0.00329414
-0.00300095
-0.00254455
-0.00185209
-0.000822
0.000688817
0.00297551
0.00636002
0.0102442
0.0170008
-0.00374852
-0.00392562
-0.00394052
-0.00403203
-0.00413785
-0.00425853
-0.00438081
-0.004488
-0.00456371
-0.00459316
-0.00456389
-0.00446238
-0.00426906
-0.00394559
-0.00342716
-0.0025669
-0.00101947
0.00247296
0.00661534
0.0184149
-0.0045911
-0.00455852
-0.00452098
-0.0045885
-0.00475387
-0.00497496
-0.00521765
-0.00545065
-0.00565471
-0.00582112
-0.00595517
-0.00607262
-0.00620755
-0.00640661
-0.00676371
-0.0073253
-0.00813351
-0.00674302
-0.00479533
0.0131172
-0.00521572
-0.00572372
-0.00559934
-0.00580588
-0.00597431
-0.00619539
-0.00644849
-0.00671172
-0.00697428
-0.00722975
-0.00749907
-0.00783051
-0.0083392
-0.00921556
-0.0108952
-0.0136188
-0.0195674
-0.0220691
-0.0213427
0.00531128
-0.00853445
-0.00603809
-0.00573559
-0.00556093
-0.00586079
-0.00632584
-0.00686977
-0.00739103
-0.00787874
-0.00830424
-0.00872353
-0.00917786
-0.00990939
-0.0110918
-0.0137855
-0.0175057
-0.0266403
-0.0309936
-0.0301773
0.0157988
-0.00537336
-0.00835757
-0.0078624
-0.00845935
-0.00861248
-0.00887003
-0.00919573
-0.00951606
-0.00984147
-0.0101274
-0.0103841
-0.010729
-0.0113829
-0.0125116
-0.0159248
-0.0200221
-0.0295917
-0.0304187
-0.0139588
0.0629991
-0.0297508
-0.00509011
-0.00448893
-0.0044384
-0.00489211
-0.00569847
-0.00667417
-0.0075159
-0.00834188
-0.00891814
-0.00958458
-0.0100637
-0.0110772
-0.0121498
-0.0142327
-0.0151428
-0.0127736
0.00768976
0.0646828
0.194896
1.77554e-05
-1.37464e-05
1.02739e-05
6.08186e-05
0.000144346
0.000260524
0.000408866
0.000588541
0.000797826
0.00103377
0.0012919
0.00156591
0.00184748
0.00212622
0.00238992
0.00262506
0.00281741
0.00295334
0.00303243
0.00300966
4.9326e-05
1.65422e-05
4.13943e-05
8.94666e-05
0.00016889
0.000279793
0.000422072
0.000595253
0.000797942
0.00102753
0.00127988
0.0015488
0.00182654
0.00210278
0.00236528
0.0026004
0.00279358
0.00293103
0.00301369
0.0029895
2.2086e-05
-1.5495e-05
8.09929e-06
5.41134e-05
0.000131534
0.000240642
0.000381678
0.000554597
0.000758478
0.00099117
0.00124893
0.00152638
0.00181531
0.00210528
0.00238345
0.00263496
0.00284343
0.00299273
0.00308332
0.0030547
-3.70115e-05
-7.867e-05
-5.66551e-05
-1.31001e-05
6.19894e-05
0.000169221
0.000309381
0.000483089
0.000690153
0.000929178
0.00119711
0.00148899
0.0017973
0.00211115
0.00241651
0.00269654
0.00293192
0.00310259
0.0032077
0.0031767
-0.000134777
-0.000181091
-0.00016106
-0.000120305
-4.76505e-05
5.79517e-05
0.00019801
0.000374028
0.000586812
0.00083604
0.00111972
0.00143367
0.00177094
0.00212047
0.002467
0.00279097
0.00306857
0.00327343
0.00340197
0.0033697
-0.000271715
-0.00032374
-0.000306248
-0.000269039
-0.000199525
-9.61e-05
4.3658e-05
0.000222388
0.000442213
0.000704271
0.00100808
0.00135084
0.00172688
0.00212517
0.00252926
0.00291622
0.0032561
0.00351295
0.00367792
0.00364641
-0.000448821
-0.000507893
-0.000493749
-0.000461381
-0.000396503
-0.000296844
-0.000158867
2.14833e-05
0.00024802
0.000523836
0.000850601
0.00122763
0.0016517
0.00211266
0.00259341
0.00306748
0.00349698
0.00383191
0.00405317
0.00402773
-0.000667739
-0.000735465
-0.000725781
-0.000700161
-0.00064231
-0.000549226
-0.000416062
-0.000237065
-6.33756e-06
0.000281736
0.000631738
0.00104612
0.00152608
0.00206366
0.00264283
0.00323434
0.00379116
0.00424362
0.00455271
0.00454716
-0.000930463
-0.0010087
-0.00100486
-0.000988528
-0.000941092
-0.000858788
-0.00073531
-0.000562977
-0.000333435
-3.79675e-05
0.000331666
0.000781174
0.00132252
0.00194876
0.00264937
0.00339534
0.00413078
0.00476179
0.0052102
0.00525988
-0.00123933
-0.00133014
-0.00133367
-0.00132976
-0.00129713
-0.00123133
-0.00112449
-0.000966864
-0.000747405
-0.000453717
-7.20684e-05
0.000412941
0.00100484
0.00172413
0.0025664
0.00350852
0.00449025
0.00539334
0.00606769
0.00626141
-0.00159718
-0.00170275
-0.001715
-0.00172701
-0.00171449
-0.00167239
-0.00159131
-0.00145946
-0.00126322
-0.000986781
-0.000611816
-0.00011768
0.000517482
0.00132508
0.00231858
0.0034951
0.00480525
0.00611816
0.00717134
0.00772275
-0.00200778
-0.00213017
-0.00215166
-0.00218302
-0.0021965
-0.00218661
-0.00214239
-0.00205023
-0.00189436
-0.00165615
-0.00131299
-0.000837364
-0.000197906
0.000666847
0.00178953
0.00321145
0.00492975
0.00684083
0.00853205
0.00995286
-0.00247688
-0.00261707
-0.00264644
-0.0026998
-0.00274517
-0.00277679
-0.00278205
-0.00274574
-0.00265079
-0.0024773
-0.00220042
-0.00178677
-0.00118872
-0.000368103
0.000797709
0.00240139
0.00454671
0.00725676
0.00999594
0.0134107
-0.00301531
-0.00316836
-0.00319771
-0.0032735
-0.00335765
-0.00344215
-0.0035112
-0.00354804
-0.00353586
-0.00345634
-0.00328734
-0.00299879
-0.0025448
-0.00185325
-0.000817714
0.000711321
0.00304651
0.00653929
0.0106443
0.0176682
-0.00363966
-0.00382192
-0.00384319
-0.00394553
-0.00406342
-0.00419753
-0.00433397
-0.00445546
-0.00454498
-0.00458742
-0.00457063
-0.00448199
-0.00430362
-0.00399976
-0.00350678
-0.00267367
-0.00115882
0.00237393
0.00680698
0.0189663
-0.00444293
-0.00441518
-0.00438616
-0.00446772
-0.00465064
-0.00489201
-0.00515649
-0.0054117
-0.00563728
-0.00582378
-0.00597747
-0.00611652
-0.00628002
-0.0065234
-0.00695755
-0.0076507
-0.00867897
-0.00747841
-0.00515775
0.0131216
-0.00501818
-0.00553935
-0.0054231
-0.00565338
-0.00584641
-0.0060951
-0.00637723
-0.00667132
-0.00696321
-0.00724571
-0.00754105
-0.00790156
-0.00845159
-0.00939815
-0.0112217
-0.0141885
-0.0207021
-0.0237521
-0.0224276
0.00469681
-0.00827371
-0.00578792
-0.00549605
-0.00534395
-0.00567427
-0.00617633
-0.00675578
-0.0073272
-0.00785781
-0.00832067
-0.0087737
-0.00926194
-0.0100413
-0.0113004
-0.0141789
-0.01818
-0.0279529
-0.0330094
-0.0314691
0.0157523
-0.00507007
-0.00807348
-0.00756017
-0.00818718
-0.00837556
-0.00867949
-0.0090591
-0.00944101
-0.00982115
-0.0101537
-0.0104457
-0.0108244
-0.0115163
-0.012705
-0.0162786
-0.0206104
-0.0305674
-0.0316331
-0.0137711
0.0649449
-0.0293798
-0.00469618
-0.00409865
-0.00407656
-0.00458277
-0.00545507
-0.00650252
-0.00741213
-0.00830011
-0.00892677
-0.0096323
-0.0101509
-0.0112029
-0.0123433
-0.0145093
-0.0155287
-0.0131446
0.00774262
0.0663369
0.198288
2.3081e-05
-8.69693e-06
1.51205e-05
6.54386e-05
0.000148837
0.000265003
0.000413473
0.000593437
0.000803187
0.00103979
0.00129876
0.0015738
0.00185654
0.00213655
0.0024015
0.00263779
0.00283104
0.00296753
0.00304688
0.00302385
5.51415e-05
2.20727e-05
4.67208e-05
9.45515e-05
0.000173822
0.00028468
0.000427048
0.000600475
0.000803589
0.0010338
0.00128697
0.00155693
0.00183587
0.00211341
0.00237723
0.00261358
0.00280774
0.00294582
0.00302878
0.00300435
2.87002e-05
-9.18833e-06
1.4184e-05
5.99273e-05
0.000137163
0.000246193
0.000387286
0.00056043
0.000764731
0.000998068
0.00125671
0.0015353
0.00182557
0.00211705
0.00239678
0.00264978
0.0028595
0.00300964
0.00310069
0.00307184
-2.92246e-05
-7.12153e-05
-4.94482e-05
-6.20644e-06
6.86517e-05
0.000175758
0.000315935
0.000489843
0.000697332
0.000937047
0.00120597
0.00149916
0.00180908
0.00212479
0.00243215
0.00271416
0.00295127
0.00312319
0.00322905
0.00319788
-0.000125507
-0.000172181
-0.000152433
-0.000112045
-3.96806e-05
6.57394e-05
0.00020577
0.000381969
0.0005952
0.000845202
0.00113004
0.00144558
0.00178487
0.00213681
0.00248604
0.00281278
0.00309291
0.00329971
0.00342954
0.00339722
-0.000260582
-0.000312998
-0.000295838
-0.000259073
-0.00018993
-8.67673e-05
5.28978e-05
0.000231775
0.000452069
0.000715001
0.00102018
0.00136489
0.00174353
0.00214504
0.00255285
0.00294379
0.00328749
0.00354745
0.00371458
0.00368334
-0.000435336
-0.000494838
-0.000481098
-0.000449284
-0.0003849
-0.000285632
-0.000147862
3.25594e-05
0.000259551
0.000536328
0.000864694
0.00124411
0.00167153
0.00213679
0.0026227
0.00310252
0.00353785
0.0038778
0.00410275
0.00407822
-0.000651251
-0.000719459
-0.000710289
-0.00068539
-0.00062823
-0.000535747
-0.000402993
-0.000224093
6.99612e-06
0.000296051
0.000647843
0.00106505
0.00154924
0.00209249
0.00267875
0.00327856
0.00384424
0.00430487
0.00462026
0.00461697
-0.000910106
-0.000988889
-0.000985731
-0.00097038
-0.000923942
-0.000842583
-0.000719866
-0.000547949
-0.000318292
-2.19595e-05
0.000349529
0.000802107
0.00134862
0.00198212
0.00269227
0.00344998
0.00419877
0.00484303
0.00530225
0.00535708
-0.00121394
-0.00130539
-0.00130985
-0.0013073
-0.00127615
-0.00121184
-0.00110633
-0.000949694
-0.00073062
-0.000436426
-5.30178e-05
0.000435451
0.00103253
0.00176069
0.00261529
0.00357358
0.00457499
0.00549936
0.00619243
0.00639739
-0.00156516
-0.0016715
-0.00168506
-0.001699
-0.00168867
-0.0016489
-0.00157006
-0.00144014
-0.0012452
-0.000969119
-0.000593222
-9.6729e-05
0.000541787
0.00136114
0.00237006
0.00356783
0.00490606
0.00625244
0.00733858
0.00791351
-0.001967
-0.00209031
-0.00211364
-0.00214777
-0.00216448
-0.00215815
-0.00211755
-0.00202877
-0.0018757
-0.00163939
-0.001297
-0.00082219
-0.000196279
0.00069549
0.00183638
0.00328383
0.00503983
0.00700184
0.00875014
0.0102219
-0.00242444
-0.00256578
-0.00259771
-0.00265501
-0.0027051
-0.00274204
-0.0027529
-0.0027221
-0.0026322
-0.0024629
-0.00218882
-0.00177419
-0.00115687
-0.000349438
0.000826671
0.00245495
0.00464553
0.00742839
0.0102672
0.0137802
-0.00294734
-0.00310182
-0.00313465
-0.00321594
-0.00330686
-0.00339918
-0.00347662
-0.00352196
-0.00351801
-0.00344615
-0.00328408
-0.00300107
-0.0025497
-0.00186219
-0.000823615
0.000718319
0.0030935
0.00666997
0.0109402
0.0181361
-0.00355203
-0.00373637
-0.00376235
-0.00387246
-0.0039996
-0.00414442
-0.00429259
-0.00442637
-0.00452822
-0.00458296
-0.00457866
-0.00450325
-0.00433982
-0.00405451
-0.00358341
-0.00276946
-0.0012656
0.00231434
0.0069816
0.0193825
-0.00432755
-0.00430169
-0.00427851
-0.00436967
-0.0045652
-0.00482183
-0.00510345
-0.00537705
-0.00562012
-0.00582467
-0.00599715
-0.00615746
-0.00634815
-0.00662999
-0.00712294
-0.00790348
-0.00906795
-0.00795329
-0.00534597
0.0132326
-0.00487567
-0.00540138
-0.00528923
-0.00553296
-0.00574187
-0.00601016
-0.00631467
-0.00663139
-0.00694636
-0.0072523
-0.00757223
-0.00796124
-0.0085501
-0.00955597
-0.0114862
-0.0146194
-0.0214888
-0.0248438
-0.0231254
0.00438729
-0.0080854
-0.0056038
-0.00532022
-0.00518119
-0.00552963
-0.00605694
-0.0066688
-0.00726849
-0.00783026
-0.00832383
-0.0088077
-0.00932943
-0.0101554
-0.0114828
-0.0145039
-0.0187078
-0.0289076
-0.0344997
-0.0324481
0.0156476
-0.00489382
-0.00789484
-0.00736086
-0.00799791
-0.0082011
-0.00853179
-0.00895023
-0.00936606
-0.00978414
-0.0101533
-0.0104789
-0.0108916
-0.0116263
-0.0128746
-0.0165784
-0.0210853
-0.0313693
-0.0326198
-0.0140488
0.0658257
-0.0291414
-0.00444262
-0.00384151
-0.00382854
-0.00435962
-0.00526925
-0.00636138
-0.00731651
-0.00825007
-0.00891827
-0.00966346
-0.0102165
-0.0113141
-0.0125115
-0.0147719
-0.0158793
-0.0136019
0.00744492
0.0667693
0.199956
2.77566e-05
-4.116e-06
1.9585e-05
6.97723e-05
0.000153094
0.000269264
0.000417844
0.000598044
0.000808176
0.00104532
0.00130499
0.00158088
0.00186461
0.00214568
0.00241171
0.00264899
0.00284306
0.00298012
0.00305979
0.00303674
6.00818e-05
2.69061e-05
5.14331e-05
9.9126e-05
0.000178312
0.000289164
0.000431631
0.000605284
0.000808774
0.00103953
0.00129341
0.00156425
0.00184421
0.00212288
0.00238784
0.00262527
0.00282033
0.00295905
0.00304241
0.00301798
3.42302e-05
-3.77047e-06
1.94677e-05
6.50539e-05
0.000142184
0.000251187
0.000392361
0.000565724
0.000770408
0.00100431
0.00126373
0.00154329
0.00183473
0.00212751
0.0024086
0.00266292
0.00287378
0.00302477
0.00311635
0.00308755
-2.279e-05
-6.49011e-05
-4.32885e-05
-2.34649e-07
7.44837e-05
0.000181529
0.000321761
0.000495876
0.000703761
0.000944097
0.00121389
0.00150822
0.00181954
0.00213686
0.00244596
0.00272971
0.00296838
0.0031415
0.00324817
0.00321713
-0.000117875
-0.00016468
-0.000145116
-0.00010496
-3.27837e-05
7.25282e-05
0.000212577
0.000388967
0.000602616
0.00085331
0.00113916
0.00145608
0.00179712
0.00215114
0.00250269
0.00283183
0.00311422
0.00332283
0.00345391
0.00342189
-0.000251415
-0.000303976
-0.000287044
-0.000250573
-0.00018169
-7.87075e-05
6.09149e-05
0.00023995
0.000460671
0.000724374
0.00103075
0.00137714
0.00175799
0.00216225
0.00257322
0.00296755
0.00331456
0.00357732
0.00374646
0.0037158
-0.000424214
-0.00048388
-0.000470433
-0.000439009
-0.000374995
-0.000276024
-0.000138404
4.2096e-05