/*--------------------------------*- C++ -*----------------------------------*\
  =========                 |
  \\      /  F ield         | OpenFOAM: The Open Source CFD Toolbox
   \\    /   O peration     | Website:  https://openfoam.org
    \\  /    A nd           | Version:  10
     \\/     M anipulation  |
\*---------------------------------------------------------------------------*/
FoamFile
{
    format      ascii;
    class       volVectorField;
    location    "5.05";
    object      U;
}
// * * * * * * * * * * * * * * * * * * * * * * * * * * * * * * * * * * * * * //

dimensions      [0 1 -1 0 0 0 0];

internalField   nonuniform List<vector> 
400
(
(-9.07626e-05 8.49091e-05 0)
(-0.000801182 0.000308598 0)
(-0.00199672 0.000376338 0)
(-0.00315466 0.000385299 0)
(-0.00430105 0.000378993 0)
(-0.00539794 0.000367369 0)
(-0.00642312 0.000349715 0)
(-0.00735357 0.000323099 0)
(-0.00816028 0.000284316 0)
(-0.00880831 0.000230189 0)
(-0.00925714 0.000158005 0)
(-0.00946247 6.65788e-05 0)
(-0.00937701 -4.72482e-05 0)
(-0.00895638 -0.0001803 0)
(-0.00816763 -0.000326971 0)
(-0.00699534 -0.000476874 0)
(-0.00546016 -0.000611161 0)
(-0.00366439 -0.000694739 0)
(-0.00163125 -0.000648166 0)
(-0.000270181 -0.000292016 0)
(-0.000332701 0.000808528 0)
(-0.00179698 0.0017329 0)
(-0.00399217 0.00199479 0)
(-0.00611398 0.00200505 0)
(-0.00818473 0.00193277 0)
(-0.0101347 0.00181972 0)
(-0.0119175 0.00166802 0)
(-0.0134902 0.00147087 0)
(-0.0148042 0.00121984 0)
(-0.0158055 0.000906572 0)
(-0.0164344 0.000523671 0)
(-0.0166316 6.54385e-05 0)
(-0.0163337 -0.000465488 0)
(-0.0154813 -0.00105724 0)
(-0.0140369 -0.00168544 0)
(-0.0119883 -0.00230784 0)
(-0.00937966 -0.00285155 0)
(-0.00636521 -0.00317907 0)
(-0.00299554 -0.00299343 0)
(-0.000602269 -0.0016004 0)
(-0.000422263 0.00208025 0)
(-0.00218183 0.00397139 0)
(-0.00476761 0.00448194 0)
(-0.0072528 0.00447119 0)
(-0.00966733 0.0042774 0)
(-0.0119324 0.00398601 0)
(-0.0139962 0.00360562 0)
(-0.0158113 0.00312719 0)
(-0.0173251 0.00253789 0)
(-0.0184798 0.00182437 0)
(-0.0192129 0.000975132 0)
(-0.0194549 -1.7097e-05 0)
(-0.0191309 -0.00114767 0)
(-0.0181729 -0.00239318 0)
(-0.0165286 -0.00370506 0)
(-0.0141719 -0.00499794 0)
(-0.0111395 -0.00612555 0)
(-0.00760129 -0.00680926 0)
(-0.00360866 -0.00645653 0)
(-0.000738564 -0.00366104 0)
(-0.000450305 0.00339047 0)
(-0.00233817 0.00629408 0)
(-0.00510976 0.0070542 0)
(-0.00776669 0.00701574 0)
(-0.010351 0.00669714 0)
(-0.0127825 0.006228 0)
(-0.0150109 0.00562259 0)
(-0.0169903 0.00486895 0)
(-0.0186688 0.00394869 0)
(-0.0199874 0.0028415 0)
(-0.020879 0.00152891 0)
(-0.0212693 -7.73157e-08 0)
(-0.0210678 -0.00174374 0)
(-0.0201787 -0.00367684 0)
(-0.0185187 -0.00573174 0)
(-0.0160254 -0.00778164 0)
(-0.0127059 -0.00959805 0)
(-0.00873723 -0.0107332 0)
(-0.00416962 -0.0102447 0)
(-0.000853753 -0.00590723 0)
(-0.000465851 0.00477558 0)
(-0.00245177 0.00875855 0)
(-0.00537818 0.00978271 0)
(-0.00818329 0.00971829 0)
(-0.0109218 0.00927646 0)
(-0.0135144 0.0086335 0)
(-0.0159154 0.00780973 0)
(-0.0180835 0.00678985 0)
(-0.0199701 0.00554847 0)
(-0.0215172 0.0040555 0)
(-0.0226539 0.00228022 0)
(-0.0232921 0.00019784 0)
(-0.0233238 -0.00219772 0)
(-0.0226204 -0.00489022 0)
(-0.0210442 -0.00780218 0)
(-0.0184702 -0.0107682 0)
(-0.0148417 -0.0134632 0)
(-0.0103264 -0.0152205 0)
(-0.00497702 -0.0146502 0)
(-0.00102711 -0.00854029 0)
(-0.000483615 0.00622681 0)
(-0.00258084 0.0113623 0)
(-0.00568468 0.0126698 0)
(-0.0086618 0.0125851 0)
(-0.0115807 0.0120269 0)
(-0.0143642 0.011222 0)
(-0.0169737 0.0101974 0)
(-0.0193756 0.00893435 0)
(-0.0215281 0.00739888 0)
(-0.0233772 0.00554747 0)
(-0.024851 0.00333072 0)
(-0.0258513 0.000700838 0)
(-0.0262485 -0.0023771 0)
(-0.0258676 -0.00591033 0)
(-0.0244969 -0.00982996 0)
(-0.0219127 -0.0139416 0)
(-0.0179432 -0.0178078 0)
(-0.0127024 -0.0204762 0)
(-0.00623565 -0.0199409 0)
(-0.00131768 -0.0117583 0)
(-0.000506468 0.00775635 0)
(-0.0027389 0.0141286 0)
(-0.00605521 0.0157419 0)
(-0.0092361 0.0156431 0)
(-0.0123666 0.014977 0)
(-0.0153727 0.0140257 0)
(-0.018226 0.0128247 0)
(-0.0209047 0.0113522 0)
(-0.0233791 0.00956462 0)
(-0.025606 0.00740148 0)
(-0.027519 0.00478695 0)
(-0.0290159 0.0016364 0)
(-0.0299495 -0.00213073 0)
(-0.0300934 -0.00657761 0)
(-0.0291377 -0.0116796 0)
(-0.0267119 -0.0172446 0)
(-0.0224482 -0.0227203 0)
(-0.0163009 -0.0267833 0)
(-0.00826772 -0.0265325 0)
(-0.00183444 -0.0159142 0)
(-0.000534698 0.00938237 0)
(-0.00292888 0.0170904 0)
(-0.00649476 0.0190329 0)
(-0.0099091 0.0189238 0)
(-0.0132772 0.0181564 0)
(-0.0165297 0.0170751 0)
(-0.0196523 0.0157269 0)
(-0.0226399 0.0140888 0)
(-0.0254827 0.0121084 0)
(-0.0281583 0.00970661 0)
(-0.0306188 0.00677479 0)
(-0.0327713 0.00317637 0)
(-0.0344659 -0.00124547 0)
(-0.0354323 -0.00663663 0)
(-0.0352469 -0.0130945 0)
(-0.0333379 -0.0204953 0)
(-0.0290258 -0.0282105 0)
(-0.0218917 -0.0344613 0)
(-0.0117621 -0.035042 0)
(-0.00284038 -0.0216518 0)
(-0.000569191 0.011124 0)
(-0.00315444 0.0202819 0)
(-0.00700777 0.0225748 0)
(-0.0106807 0.0224525 0)
(-0.0143036 0.0215853 0)
(-0.0178138 0.0203883 0)
(-0.0212147 0.0189247 0)
(-0.0245247 0.0171745 0)
(-0.0277627 0.0150804 0)
(-0.0309409 0.0125464 0)
(-0.0340504 0.00942914 0)
(-0.0370375 0.00552781 0)
(-0.0397669 0.000582321 0)
(-0.0419684 -0.00569079 0)
(-0.0431313 -0.0136075 0)
(-0.042433 -0.0232467 0)
(-0.0387536 -0.0340436 0)
(-0.0309546 -0.0437531 0)
(-0.0183279 -0.0463958 0)
(-0.00500728 -0.0302865 0)
(-0.000612888 0.013004 0)
(-0.0034248 0.0237402 0)
(-0.00760608 0.0263972 0)
(-0.0115572 0.0262473 0)
(-0.015441 0.0252714 0)
(-0.0192028 0.0239663 0)
(-0.0228684 0.0224176 0)
(-0.0264858 0.0206152 0)
(-0.0301124 0.0185051 0)
(-0.0338114 0.0159835 0)
(-0.0376399 0.0128798 0)
(-0.041622 0.00893092 0)
(-0.0456961 0.00375727 0)
(-0.0496759 -0.00315258 0)
(-0.0530536 -0.0123993 0)
(-0.0548259 -0.0245269 0)
(-0.0533761 -0.039342 0)
(-0.0463792 -0.0544095 0)
(-0.0315969 -0.0618434 0)
(-0.00998352 -0.0446651 0)
(-0.000672591 0.0150541 0)
(-0.0037596 0.0275097 0)
(-0.00831558 0.030529 0)
(-0.0125584 0.0303171 0)
(-0.0166951 0.0292067 0)
(-0.020681 0.0277876 0)
(-0.0245683 0.0261755 0)
(-0.0284391 0.0243793 0)
(-0.0323966 0.022361 0)
(-0.036569 0.0200277 0)
(-0.0411073 0.017205 0)
(-0.0461693 0.0135911 0)
(-0.0518806 0.00869119 0)
(-0.0582505 0.0017462 0)
(-0.0650389 -0.0082323 0)
(-0.071423 -0.0224502 0)
(-0.0754534 -0.0417622 0)
(-0.0729823 -0.0646573 0)
(-0.0576732 -0.0827774 0)
(-0.0205378 -0.0709136 0)
(-0.000762465 0.0173242 0)
(-0.00419666 0.03165 0)
(-0.00918535 0.0350011 0)
(-0.0137262 0.034662 0)
(-0.0180908 0.0333645 0)
(-0.022248 0.031804 0)
(-0.0262796 0.0301324 0)
(-0.0303027 0.0283866 0)
(-0.0344668 0.0265618 0)
(-0.0389713 0.0246052 0)
(-0.044084 0.022385 0)
(-0.0501565 0.0196298 0)
(-0.0576163 0.0158252 0)
(-0.0669058 0.0100741 0)
(-0.078452 0.000962358 0)
(-0.0924399 -0.0135583 0)
(-0.107067 -0.0364316 0)
(-0.114473 -0.0706209 0)
(-0.098718 -0.111941 0)
(-0.0354741 -0.120899 0)
(-0.000911001 0.0198905 0)
(-0.00480479 0.0362186 0)
(-0.0103008 0.0398042 0)
(-0.0151356 0.0392286 0)
(-0.0196818 0.0376712 0)
(-0.0239276 0.0359269 0)
(-0.0279887 0.0341774 0)
(-0.0320121 0.0324958 0)
(-0.0361804 0.0309296 0)
(-0.0407487 0.0295004 0)
(-0.046089 0.0281819 0)
(-0.0527568 0.0268451 0)
(-0.0615772 0.0251485 0)
(-0.0737398 0.0223521 0)
(-0.0909465 0.0170305 0)
(-0.11504 0.00608179 0)
(-0.143695 -0.0181349 0)
(-0.160405 -0.0716884 0)
(-0.136755 -0.158925 0)
(-0.0429373 -0.205346 0)
(-0.00118749 0.0229564 0)
(-0.0057473 0.0415561 0)
(-0.011823 0.0453027 0)
(-0.0168911 0.0443568 0)
(-0.0215268 0.0423442 0)
(-0.0257557 0.0402276 0)
(-0.0297132 0.0382581 0)
(-0.0335522 0.0365574 0)
(-0.0374638 0.0352323 0)
(-0.0417215 0.0344098 0)
(-0.046748 0.0342525 0)
(-0.0532352 0.0349358 0)
(-0.0623303 0.0365918 0)
(-0.0758555 0.0390747 0)
(-0.0966373 0.0412451 0)
(-0.127269 0.0373594 0)
(-0.163019 0.0094671 0)
(-0.177181 -0.0798975 0)
(-0.14398 -0.230387 0)
(-0.040943 -0.31133 0)
(-0.00157813 0.0267589 0)
(-0.00686884 0.0466535 0)
(-0.0137707 0.0499047 0)
(-0.0191752 0.0481562 0)
(-0.0239342 0.0457497 0)
(-0.028019 0.0435071 0)
(-0.0316546 0.0415572 0)
(-0.0350293 0.039974 0)
(-0.0383101 0.0388995 0)
(-0.0416948 0.0385739 0)
(-0.045508 0.0393987 0)
(-0.0503371 0.0419887 0)
(-0.057279 0.0471942 0)
(-0.0681079 0.0555451 0)
(-0.0856771 0.0657774 0)
(-0.111433 0.0668801 0)
(-0.141974 0.0306315 0)
(-0.146128 -0.0950192 0)
(-0.123407 -0.294893 0)
(-0.0386814 -0.410264 0)
(-0.00361169 0.0303054 0)
(-0.0110735 0.0556267 0)
(-0.0174606 0.0587218 0)
(-0.0223074 0.0565151 0)
(-0.0263685 0.0528751 0)
(-0.0299926 0.0494219 0)
(-0.0332448 0.0464599 0)
(-0.0361558 0.0441343 0)
(-0.0387345 0.0426063 0)
(-0.0409931 0.0421544 0)
(-0.0429716 0.043338 0)
(-0.0448004 0.0471059 0)
(-0.047016 0.0550109 0)
(-0.0500114 0.0677827 0)
(-0.0556504 0.0839146 0)
(-0.0625715 0.0858336 0)
(-0.0774008 0.0455084 0)
(-0.0733777 -0.0982857 0)
(-0.0847493 -0.326617 0)
(-0.0223076 -0.490113 0)
(-0.00127425 0.044388 0)
(-0.0090271 0.0582652 0)
(-0.0204085 0.0582578 0)
(-0.0258086 0.053671 0)
(-0.0307878 0.0503307 0)
(-0.0341224 0.0476947 0)
(-0.0365331 0.0455477 0)
(-0.0381772 0.0437661 0)
(-0.0390998 0.0424938 0)
(-0.0391752 0.0419667 0)
(-0.0381444 0.0428362 0)
(-0.0354117 0.0459128 0)
(-0.0307741 0.0530935 0)
(-0.0220724 0.0644149 0)
(-0.0124932 0.0798596 0)
(0.00663574 0.0824176 0)
(0.00880344 0.0451204 0)
(0.0193551 -0.0865101 0)
(-0.0269167 -0.326306 0)
(0.0110017 -0.524302 0)
(-0.0121192 0.0337017 0)
(-0.024807 0.0802333 0)
(-0.0250402 0.0785049 0)
(-0.0320374 0.0732325 0)
(-0.0348238 0.0659805 0)
(-0.0359689 0.05965 0)
(-0.0354423 0.0542723 0)
(-0.0336535 0.0498175 0)
(-0.0307881 0.0462467 0)
(-0.0266898 0.0434237 0)
(-0.0214666 0.0417674 0)
(-0.0138378 0.0415313 0)
(-0.00445664 0.044556 0)
(0.0117009 0.0504555 0)
(0.0302578 0.0611522 0)
(0.0639681 0.0648393 0)
(0.0771171 0.0405204 0)
(0.113669 -0.0558525 0)
(0.0534739 -0.295759 0)
(0.0560505 -0.510353 0)
(-0.0766562 0.0974766 0)
(-0.062297 0.0603253 0)
(-0.0643715 0.0602059 0)
(-0.0435154 0.0535419 0)
(-0.0265688 0.046656 0)
(-0.00724057 0.0414615 0)
(0.0109886 0.0376632 0)
(0.0289695 0.0343203 0)
(0.0454617 0.0318005 0)
(0.0624454 0.0292311 0)
(0.076948 0.0276216 0)
(0.0946873 0.0261391 0)
(0.107101 0.0258097 0)
(0.132027 0.0268395 0)
(0.142854 0.0255764 0)
(0.190516 0.0221326 0)
(0.192077 -0.0111876 0)
(0.243922 -0.0801528 0)
(0.172555 -0.268296 0)
(0.126518 -0.448142 0)
(0.120012 0.140446 0)
(0.1526 0.0860749 0)
(0.230253 0.0636277 0)
(0.285447 0.0483241 0)
(0.327153 0.037707 0)
(0.365481 0.0300419 0)
(0.394573 0.0245911 0)
(0.426119 0.02073 0)
(0.445896 0.0178367 0)
(0.47531 0.0156246 0)
(0.48707 0.0139685 0)
(0.517643 0.0127477 0)
(0.522098 0.0117197 0)
(0.556047 0.0114039 0)
(0.552007 0.00990041 0)
(0.588955 0.00729107 0)
(0.563921 -0.00207671 0)
(0.57519 -0.0263144 0)
(0.437943 -0.0737964 0)
(0.279113 -0.154833 0)
)
;

boundaryField
{
    movingWall
    {
        type            fixedValue;
        value           uniform (1 0 0);
    }
    fixedWalls
    {
        type            noSlip;
    }
    frontAndBack
    {
        type            empty;
    }
}


// ************************************************************************* //
