/*--------------------------------*- C++ -*----------------------------------*\
  =========                 |
  \\      /  F ield         | OpenFOAM: The Open Source CFD Toolbox
   \\    /   O peration     | Website:  https://openfoam.org
    \\  /    A nd           | Version:  10
     \\/     M anipulation  |
\*---------------------------------------------------------------------------*/
FoamFile
{
    format      ascii;
    class       volVectorField;
    location    "1.875";
    object      U;
}
// * * * * * * * * * * * * * * * * * * * * * * * * * * * * * * * * * * * * * //

dimensions      [0 1 -1 0 0 0 0];

internalField   nonuniform List<vector> 
8000
(
(-0.000222648 0.000224167 -4.52335e-06)
(-0.000853218 0.000314187 1.02108e-05)
(-0.00162613 0.000312442 1.3132e-05)
(-0.0023365 0.000293805 1.40376e-05)
(-0.00299676 0.000267627 1.33685e-05)
(-0.00358731 0.000235084 1.17567e-05)
(-0.00409275 0.000196736 9.5193e-06)
(-0.00449995 0.000153185 6.798e-06)
(-0.00479746 0.000105109 3.67774e-06)
(-0.00497571 5.33015e-05 1.78056e-07)
(-0.00502723 -1.1815e-06 -3.52429e-06)
(-0.00494685 -5.76197e-05 -7.38208e-06)
(-0.00473224 -0.00011444 -1.13068e-05)
(-0.00438459 -0.0001701 -1.51515e-05)
(-0.00390897 -0.000222812 -1.87095e-05)
(-0.00331499 -0.000270576 -2.16759e-05)
(-0.00261783 -0.00031122 -2.35159e-05)
(-0.00184156 -0.000341819 -2.33244e-05)
(-0.000979404 -0.000350792 -2.0337e-05)
(-0.000260684 -0.000255963 -3.21619e-06)
(-0.000321964 0.000866981 -2.15369e-05)
(-0.00119112 0.00117205 -6.53223e-06)
(-0.00223094 0.00116212 -2.57986e-06)
(-0.00318852 0.00109093 -1.95687e-07)
(-0.00407628 0.000991094 8.31428e-07)
(-0.00486799 0.000867384 1.10671e-06)
(-0.00554317 0.000722317 9.21825e-07)
(-0.00608462 0.000558478 3.70329e-07)
(-0.00647761 0.000378684 -4.93307e-07)
(-0.00670988 0.000186016 -1.63903e-06)
(-0.00677255 -1.62387e-05 -3.08462e-06)
(-0.00665927 -0.000223945 -4.6928e-06)
(-0.00636717 -0.000432199 -6.49495e-06)
(-0.00589843 -0.000635549 -8.37378e-06)
(-0.00526001 -0.000827621 -1.01474e-05)
(-0.00446463 -0.00100128 -1.15197e-05)
(-0.00353237 -0.00114873 -1.19223e-05)
(-0.0024946 -0.00125932 -1.03952e-05)
(-0.00134593 -0.0012929 -6.31294e-06)
(-0.000368792 -0.00097221 1.20358e-05)
(-0.000345383 0.00169759 -2.75057e-05)
(-0.00127742 0.0022547 -1.21679e-05)
(-0.00239111 0.00223164 -7.83176e-06)
(-0.00341534 0.00209297 -4.95419e-06)
(-0.00436451 0.00189909 -3.40984e-06)
(-0.00521097 0.00165945 -2.5585e-06)
(-0.00593327 0.00137929 -2.10631e-06)
(-0.00651348 0.00106383 -1.97193e-06)
(-0.00693623 0.000718664 -2.13631e-06)
(-0.00718901 0.000349725 -2.59653e-06)
(-0.00726173 -3.66256e-05 -3.33927e-06)
(-0.00714699 -0.000432866 -4.32574e-06)
(-0.00684154 -0.000830035 -5.55702e-06)
(-0.00634657 -0.00121787 -6.92212e-06)
(-0.00566814 -0.00158445 -8.2426e-06)
(-0.00481858 -0.00191627 -9.21564e-06)
(-0.00381835 -0.0021984 -9.23893e-06)
(-0.00270076 -0.00241038 -7.28355e-06)
(-0.00145926 -0.00247766 -2.74095e-06)
(-0.000400279 -0.00189235 1.65944e-05)
(-0.000366725 0.0025488 -3.23905e-05)
(-0.0013588 0.00336892 -1.64261e-05)
(-0.00254512 0.00333161 -1.17528e-05)
(-0.00363506 0.00312335 -8.48887e-06)
(-0.0046452 0.00283322 -6.58209e-06)
(-0.0055466 0.00247546 -5.35602e-06)
(-0.00631715 0.00205806 -4.50781e-06)
(-0.00693849 0.00158889 -3.96245e-06)
(-0.00739485 0.0010761 -3.71452e-06)
(-0.00767299 0.00052827 -3.78058e-06)
(-0.0077624 -4.51748e-05 -4.18851e-06)
(-0.00765418 -0.000634378 -4.82189e-06)
(-0.00734288 -0.00122645 -5.75091e-06)
(-0.00682799 -0.00180647 -6.87429e-06)
(-0.00611367 -0.00235686 -8.00573e-06)
(-0.00521062 -0.00285734 -8.82126e-06)
(-0.00413879 -0.00328497 -8.66197e-06)
(-0.00293341 -0.00360818 -6.38994e-06)
(-0.00158724 -0.0037153 -1.36643e-06)
(-0.000435591 -0.00285199 1.95297e-05)
(-0.00039609 0.00346509 -3.72999e-05)
(-0.00146975 0.00456939 -2.02957e-05)
(-0.00275434 0.00451621 -1.52412e-05)
(-0.00393324 0.00423277 -1.16127e-05)
(-0.00502558 0.00383932 -9.41181e-06)
(-0.00600083 0.0033555 -7.91749e-06)
(-0.0068362 0.0027924 -6.81082e-06)
(-0.007513 0.00216068 -6.0175e-06)
(-0.00801516 0.00147101 -5.53942e-06)
(-0.00832887 0.000734261 -5.40666e-06)
(-0.00844275 -3.79024e-05 -5.66996e-06)
(-0.00834598 -0.000833148 -6.15457e-06)
(-0.00803026 -0.0016353 -6.99639e-06)
(-0.00749214 -0.00242526 -8.09337e-06)
(-0.00673242 -0.00317963 -9.24877e-06)
(-0.00575887 -0.00387051 -1.0102e-05)
(-0.00458991 -0.00446534 -9.90527e-06)
(-0.00326287 -0.00491868 -7.34867e-06)
(-0.00176986 -0.00507608 -1.69862e-06)
(-0.000486532 -0.0039095 2.16435e-05)
(-0.000435106 0.00446828 -4.30904e-05)
(-0.00161651 0.00588451 -2.4631e-05)
(-0.00303022 0.00581295 -1.91067e-05)
(-0.00432532 0.00544646 -1.50548e-05)
(-0.0055243 0.00493995 -1.25389e-05)
(-0.00659471 0.00431942 -1.07819e-05)
(-0.00751324 0.00359959 -9.44475e-06)
(-0.00826124 0.00279413 -8.4512e-06)
(-0.00882266 0.00191608 -7.80638e-06)
(-0.00918329 0.000978133 -7.55323e-06)
(-0.00933116 -6.67629e-06 -7.8054e-06)
(-0.00925288 -0.0010237 -8.22844e-06)
(-0.00893619 -0.0020553 -9.12986e-06)
(-0.00837341 -0.00307862 -1.0366e-05)
(-0.00755994 -0.00406447 -1.17301e-05)
(-0.00649839 -0.00497642 -1.28114e-05)
(-0.00520368 -0.00577005 -1.27327e-05)
(-0.0037147 -0.00638194 -9.92739e-06)
(-0.00202241 -0.00660616 -3.48798e-06)
(-0.000557605 -0.00510331 2.33563e-05)
(-0.000485018 0.00558303 -5.04686e-05)
(-0.00180384 0.00734632 -3.01434e-05)
(-0.00338126 0.00725234 -2.40156e-05)
(-0.00482225 0.00679178 -1.9403e-05)
(-0.00615379 0.00615896 -1.64641e-05)
(-0.00734136 0.00538771 -1.4359e-05)
(-0.00836161 0.00449724 -1.27288e-05)
(-0.00919666 0.00350452 -1.14948e-05)
(-0.0098313 0.00242481 -1.06583e-05)
(-0.0102518 0.00127196 -1.02305e-05)
(-0.0104447 5.93397e-05 -1.01547e-05)
(-0.0103947 -0.00119775 -1.09585e-05)
(-0.0100853 -0.0024817 -1.21056e-05)
(-0.00950141 -0.00376735 -1.36577e-05)
(-0.00863042 -0.00502037 -1.54479e-05)
(-0.00746621 -0.00619505 -1.70144e-05)
(-0.0060165 -0.0072323 -1.72983e-05)
(-0.00431981 -0.00804474 -1.43536e-05)
(-0.00236438 -0.00836192 -6.97049e-06)
(-0.000654852 -0.00648133 2.46782e-05)
(-0.000547619 0.00683894 -6.0142e-05)
(-0.00203827 0.0089929 -3.75075e-05)
(-0.00381887 0.00886982 -3.05763e-05)
(-0.00543832 0.00829958 -2.51679e-05)
(-0.0069297 0.0075224 -2.15968e-05)
(-0.00825657 0.00658206 -1.89619e-05)
(-0.00939652 0.00550352 -1.6891e-05)
(-0.0103338 0.00430762 -1.53083e-05)
(-0.0110553 0.0030116 -1.42166e-05)
(-0.0115488 0.00162955 -1.35989e-05)
(-0.0118009 0.000173787 -1.32787e-05)
(-0.011794 -0.00134279 -1.44821e-05)
(-0.0115058 -0.00290438 -1.59972e-05)
(-0.0109121 -0.00448637 -1.80801e-05)
(-0.00998785 -0.00605129 -2.06085e-05)
(-0.00871256 -0.00754416 -2.30754e-05)
(-0.00708025 -0.00888805 -2.41722e-05)
(-0.00512402 -0.00996339 -2.13928e-05)
(-0.00282604 -0.0104153 -1.29816e-05)
(-0.000788149 -0.00810709 2.51458e-05)
(-0.000625707 0.00827162 -7.30647e-05)
(-0.00232953 0.0108694 -4.76039e-05)
(-0.00435935 0.0107061 -3.95485e-05)
(-0.00619331 0.0100038 -3.29469e-05)
(-0.0078729 0.00905739 -2.83746e-05)
(-0.00936041 0.00792384 -2.48864e-05)
(-0.0106362 0.00663566 -2.21122e-05)
(-0.0116887 0.0052183 -1.99888e-05)
(-0.0125095 0.00369074 -1.85402e-05)
(-0.0130897 0.00206602 -1.78194e-05)
(-0.0134171 0.000353026 -1.79469e-05)
(-0.013473 -0.00144044 -1.89473e-05)
(-0.0132289 -0.00330487 -2.08644e-05)
(-0.0126484 -0.00522053 -2.37684e-05)
(-0.0116885 -0.00715103 -2.7524e-05)
(-0.0103058 -0.00903431 -3.15821e-05)
(-0.00846974 -0.010773 -3.43343e-05)
(-0.00619686 -0.0122047 -3.24599e-05)
(-0.00345613 -0.0128589 -2.31427e-05)
(-0.000974464 -0.0100677 2.35258e-05)
(-0.000723835 0.00992586 -9.07093e-05)
(-0.00269243 0.0130308 -6.17608e-05)
(-0.00502648 0.0128087 -5.2018e-05)
(-0.00711504 0.0119417 -4.35286e-05)
(-0.00901152 0.0107915 -3.73079e-05)
(-0.0106785 0.0094327 -3.24106e-05)
(-0.0121022 0.00790806 -2.8491e-05)
(-0.0132788 0.00624867 -2.54989e-05)
(-0.0142077 0.00447487 -2.34643e-05)
(-0.0148867 0.00259701 -2.24559e-05)
(-0.0153075 0.000617605 -2.25976e-05)
(-0.015452 -0.00146499 -2.39147e-05)
(-0.015286 -0.00365321 -2.65469e-05)
(-0.0147584 -0.0059394 -3.0746e-05)
(-0.0138019 -0.00829614 -3.6504e-05)
(-0.0123381 -0.0106611 -4.33038e-05)
(-0.0102935 -0.0129168 -4.92599e-05)
(-0.00764557 -0.0148468 -4.99644e-05)
(-0.00433604 -0.0158149 -4.03911e-05)
(-0.00124458 -0.0124895 1.6807e-05)
(-0.000849845 0.0118609 -0.000115519)
(-0.00315039 0.0155469 -8.21165e-05)
(-0.00585577 0.0152347 -6.96127e-05)
(-0.00824345 0.014154 -5.79772e-05)
(-0.0103841 0.012751 -4.89626e-05)
(-0.0122441 0.011124 -4.1714e-05)
(-0.0138204 0.00932932 -3.59309e-05)
(-0.0151221 0.00740499 -3.15583e-05)
(-0.0161614 0.00537219 -2.85946e-05)
(-0.0169471 0.00323647 -2.70829e-05)
(-0.0174793 0.000990369 -2.715e-05)
(-0.0177439 -0.00138256 -2.89253e-05)
(-0.0177035 -0.00390442 -3.26017e-05)
(-0.0172914 -0.00659027 -3.87268e-05)
(-0.0164105 -0.00943524 -4.76226e-05)
(-0.0149312 -0.0123913 -5.90413e-05)
(-0.01271 -0.0153311 -7.09434e-05)
(-0.0096388 -0.0179772 -7.78239e-05)
(-0.00560774 -0.0194461 -6.97661e-05)
(-0.00165776 -0.0155669 -1.23413e-06)
(-0.00101811 0.0141602 -0.000151792)
(-0.00374211 0.0185086 -0.000112245)
(-0.00690154 0.0180528 -9.48044e-05)
(-0.00963691 0.0166843 -7.76693e-05)
(-0.0120441 0.0149581 -6.38121e-05)
(-0.0141006 0.0130045 -5.26311e-05)
(-0.0158215 0.0108973 -4.38609e-05)
(-0.0172362 0.00868273 -3.7369e-05)
(-0.0183765 0.00638196 -3.30206e-05)
(-0.0192687 0.00399306 -3.07396e-05)
(-0.0199267 0.00149438 -3.06235e-05)
(-0.020347 -0.00115142 -3.2895e-05)
(-0.0204939 -0.00399528 -3.78981e-05)
(-0.0202893 -0.00708967 -4.66468e-05)
(-0.0196033 -0.0104735 -6.01327e-05)
(-0.0182399 -0.0141407 -7.89257e-05)
(-0.0159493 -0.0179818 -0.000101463)
(-0.0124467 -0.0216803 -0.000121883)
(-0.00753142 -0.023967 -0.000119494)
(-0.00233607 -0.0196177 -4.43993e-05)
(-0.00125688 0.016953 -0.000207602)
(-0.00453443 0.0220406 -0.000158417)
(-0.00824857 0.0213482 -0.000131329)
(-0.0113821 0.0195761 -0.000104125)
(-0.0140667 0.0174251 -8.17195e-05)
(-0.0163054 0.0150649 -6.40127e-05)
(-0.0181425 0.0125914 -5.06083e-05)
(-0.0196377 0.0100592 -4.10525e-05)
(-0.0208513 0.00748751 -3.48135e-05)
(-0.0218349 0.00486385 -3.14662e-05)
(-0.0226239 0.00214776 -3.09755e-05)
(-0.0232338 -0.0007253 -3.35805e-05)
(-0.0236419 -0.00384318 -3.98962e-05)
(-0.0237698 -0.00731436 -5.16565e-05)
(-0.0234619 -0.0112516 -7.1006e-05)
(-0.0224471 -0.015738 -0.000100353)
(-0.0203404 -0.0207414 -0.000140511)
(-0.0165081 -0.0260034 -0.000189063)
(-0.0106026 -0.0296419 -0.000202748)
(-0.00354081 -0.0251997 -0.000147171)
(-0.00162647 0.0203898 -0.000296889)
(-0.0056527 0.0262861 -0.000229939)
(-0.0100344 0.0252134 -0.0001838)
(-0.0136101 0.0228639 -0.000137922)
(-0.0165583 0.020143 -0.000100382)
(-0.0189347 0.0172679 -7.21205e-05)
(-0.0208273 0.0143612 -5.1936e-05)
(-0.0223402 0.011483 -3.83781e-05)
(-0.0235719 0.0086462 -2.9912e-05)
(-0.0246085 0.00582381 -2.5258e-05)
(-0.0255159 0.0029536 -2.40175e-05)
(-0.0263378 -6.11218e-05 -2.60469e-05)
(-0.0270829 -0.00335166 -3.30212e-05)
(-0.0276976 -0.00709849 -4.69181e-05)
(-0.0280271 -0.0115245 -7.15081e-05)
(-0.0277401 -0.0168764 -0.00011244)
(-0.0263338 -0.0233051 -0.000177831)
(-0.0225285 -0.0308583 -0.0002816)
(-0.0158004 -0.0366786 -0.000339887)
(-0.0058697 -0.0334258 -0.000387146)
(-0.00221417 0.0251852 -0.000472522)
(-0.00726743 0.0316113 -0.000353761)
(-0.0124522 0.0298107 -0.00026114)
(-0.0165089 0.0265731 -0.000176475)
(-0.0196654 0.0230654 -0.000111277)
(-0.0220869 0.0195299 -6.65532e-05)
(-0.0239266 0.0161101 -3.74628e-05)
(-0.0253514 0.0128609 -1.97957e-05)
(-0.0265088 0.0097785 -9.5835e-06)
(-0.0275254 0.0068148 -4.06734e-06)
(-0.0285064 0.00388303 -1.88276e-06)
(-0.0295361 0.000852284 -7.11547e-07)
(-0.0306758 -0.00245363 -7.02139e-06)
(-0.0319384 -0.00627039 -1.81321e-05)
(-0.0332346 -0.0109786 -4.00049e-05)
(-0.0342368 -0.0170853 -8.29709e-05)
(-0.0344672 -0.0250409 -0.000170579)
(-0.0315332 -0.0357833 -0.000361465)
(-0.0251033 -0.0449223 -0.000508662)
(-0.010788 -0.0463193 -0.00092093)
(-0.00362707 0.0299283 -0.000692718)
(-0.0102845 0.0377222 -0.000532993)
(-0.0159854 0.0350563 -0.000351882)
(-0.0204161 0.0306277 -0.000199895)
(-0.0235987 0.026066 -8.71026e-05)
(-0.0258812 0.0216862 -1.92441e-05)
(-0.0274824 0.017668 1.78535e-05)
(-0.0286527 0.0140376 3.51693e-05)
(-0.0295938 0.0107548 4.22911e-05)
(-0.0304746 0.00774024 4.49148e-05)
(-0.0314436 0.0048901 4.59791e-05)
(-0.0326338 0.00207345 4.68562e-05)
(-0.0341572 -0.000898607 6.19393e-05)
(-0.0361641 -0.00437264 7.05302e-05)
(-0.0387663 -0.00880591 8.39205e-05)
(-0.0417228 -0.0151793 9.06916e-05)
(-0.0450414 -0.0240747 5.76949e-05)
(-0.0445475 -0.0395905 -0.000211952)
(-0.0414958 -0.0538095 -0.000418472)
(-0.0206187 -0.0681642 -0.00181157)
(-0.00431111 0.043548 -0.00141354)
(-0.0129044 0.0456816 -0.000791947)
(-0.0205438 0.040996 -0.00043551)
(-0.0255367 0.0342718 -0.000117952)
(-0.0285151 0.0283593 6.69671e-05)
(-0.0303221 0.0231291 0.000144989)
(-0.0313418 0.0185969 0.000169522)
(-0.0319655 0.0146861 0.000167479)
(-0.0324464 0.011309 0.000156686)
(-0.0329735 0.00835719 0.000146965)
(-0.0337009 0.00570058 0.00014539)
(-0.0347932 0.00316528 0.000157131)
(-0.0365187 0.000528928 0.000184885)
(-0.0391389 -0.00261552 0.000245034)
(-0.0431625 -0.00667761 0.000376317)
(-0.0483153 -0.0132263 0.000600044)
(-0.057125 -0.0230233 0.00089747)
(-0.0610684 -0.0436734 0.000822444)
(-0.0662951 -0.0664935 0.000789142)
(-0.0338741 -0.106467 -0.0024935)
(-0.0134149 0.0453055 -0.00227012)
(-0.0277713 0.0593259 -0.00179559)
(-0.0282946 0.0504944 -0.000723812)
(-0.0323523 0.0411288 -0.000102371)
(-0.0329526 0.0325767 0.000291792)
(-0.0329298 0.025322 0.000440832)
(-0.0324311 0.0195724 0.000469229)
(-0.0318106 0.0150599 0.000438145)
(-0.0312729 0.0115156 0.000389123)
(-0.0309961 0.0086966 0.00034434)
(-0.0311626 0.00643466 0.000317185)
(-0.0319602 0.00458717 0.000318044)
(-0.0336974 0.00311186 0.000376969)
(-0.0365798 0.00178615 0.00054282)
(-0.0417363 0.00117171 0.000917821)
(-0.0483551 -0.00287889 0.00162558)
(-0.0615916 -0.00580286 0.0029875)
(-0.0661916 -0.0348889 0.00378159)
(-0.0816685 -0.0657504 0.00456929)
(-0.0286667 -0.164203 -0.00271859)
(-0.0452338 0.104744 -0.00479736)
(-0.0364109 0.0544813 -0.000585623)
(-0.0308781 0.0444373 0.000717815)
(-0.0213201 0.033235 0.00175334)
(-0.0126037 0.0243572 0.00198774)
(-0.00538015 0.0183474 0.00179669)
(0.000619608 0.014078 0.0014901)
(0.00532491 0.0108544 0.00118688)
(0.00891312 0.0083847 0.000943071)
(0.0115578 0.00648964 0.000766796)
(0.0133841 0.00506969 0.000665263)
(0.0145808 0.00398389 0.000637763)
(0.0148671 0.00334311 0.000745088)
(0.0155377 0.00257012 0.00103868)
(0.0123457 0.00195418 0.00174857)
(0.015244 -0.00267372 0.00308559)
(0.000428926 -0.0129639 0.00561714)
(0.0125013 -0.0509673 0.00791432)
(-0.0342936 -0.122308 0.00821355)
(0.0174154 -0.24123 -0.00744645)
(0.120578 0.113097 -0.00698118)
(0.146268 0.059818 -0.00540601)
(0.214956 0.0387981 -0.00335323)
(0.250808 0.0257806 -0.00114307)
(0.273294 0.0167459 0.000253072)
(0.288705 0.0109952 0.000869142)
(0.299387 0.00754018 0.00106024)
(0.306851 0.00543034 0.00103257)
(0.312235 0.0040494 0.000910073)
(0.31631 0.0030804 0.000757235)
(0.319223 0.00239885 0.000664614)
(0.321821 0.00183842 0.000535892)
(0.322552 0.00136982 0.00066079)
(0.325493 0.00112233 0.000545503)
(0.320767 -0.000604648 0.00129276)
(0.327417 -0.000246241 0.00162896)
(0.301494 -0.00805353 0.0032603)
(0.308544 -0.0136511 0.00536388)
(0.193911 -0.0482181 -0.0018413)
(0.171117 -0.116649 -0.0221845)
(-0.000302943 0.000301434 -1.00108e-05)
(-0.00115591 0.000433517 8.56884e-06)
(-0.0021948 0.000431947 1.31869e-05)
(-0.00314388 0.000405283 1.52002e-05)
(-0.00402183 0.000367911 1.49495e-05)
(-0.00480355 0.000321691 1.32492e-05)
(-0.00546939 0.000267504 1.05401e-05)
(-0.00600257 0.000206275 7.03049e-06)
(-0.00638864 0.000139051 2.85246e-06)
(-0.0066156 6.70575e-05 -1.85126e-06)
(-0.00667444 -8.39872e-06 -7.0336e-06)
(-0.00655937 -8.60586e-05 -1.25102e-05)
(-0.0062682 -0.00016392 -1.80912e-05)
(-0.00580318 -0.000239901 -2.3529e-05)
(-0.00517149 -0.000311616 -2.84814e-05)
(-0.00438583 -0.000376429 -3.24623e-05)
(-0.00346552 -0.000431464 -3.46864e-05)
(-0.00244053 -0.000472604 -3.39367e-05)
(-0.00129879 -0.000482328 -2.94014e-05)
(-0.000345472 -0.000341772 -6.61212e-06)
(-0.000450731 0.00116376 -3.33582e-05)
(-0.00165531 0.00161033 -1.42639e-05)
(-0.00308467 0.00159938 -8.10588e-06)
(-0.0043945 0.00149832 -3.98017e-06)
(-0.00560315 0.00135685 -1.90277e-06)
(-0.00667615 0.00118239 -1.05911e-06)
(-0.00758659 0.000978804 -1.02734e-06)
(-0.00831194 0.000749952 -1.6528e-06)
(-0.00883312 0.000499993 -2.85934e-06)
(-0.00913479 0.00023343 -4.59628e-06)
(-0.00920598 -4.5137e-05 -6.8779e-06)
(-0.00903956 -0.000329934 -9.47903e-06)
(-0.00863312 -0.000614371 -1.23612e-05)
(-0.00799055 -0.000891102 -1.53053e-05)
(-0.007122 -0.00115166 -1.79861e-05)
(-0.00604484 -0.00138663 -1.99099e-05)
(-0.00478536 -0.00158571 -2.02269e-05)
(-0.0033836 -0.00173399 -1.76332e-05)
(-0.00182927 -0.00177111 -1.15365e-05)
(-0.00050252 -0.00129716 1.2809e-05)
(-0.000486228 0.00227363 -4.26267e-05)
(-0.00178394 0.00308751 -2.33076e-05)
(-0.00332115 0.00306076 -1.6539e-05)
(-0.0047279 0.00286486 -1.1575e-05)
(-0.00602519 0.00259143 -8.62153e-06)
(-0.00717646 0.00225503 -6.83792e-06)
(-0.0081535 0.00186354 -5.80338e-06)
(-0.00893277 0.00142474 -5.38235e-06)
(-0.00949448 0.000946728 -5.53224e-06)
(-0.00982282 0.000438008 -6.23645e-06)
(-0.00990555 -9.23916e-05 -7.46556e-06)
(-0.00973433 -0.00063407 -9.12436e-06)
(-0.00930625 -0.00117493 -1.1154e-05)
(-0.00862412 -0.00170122 -1.33407e-05)
(-0.00769716 -0.00219712 -1.53592e-05)
(-0.00654237 -0.00264486 -1.66988e-05)
(-0.00518671 -0.00302473 -1.6455e-05)
(-0.00367275 -0.0033082 -1.32243e-05)
(-0.00198852 -0.00338368 -6.45702e-06)
(-0.000546981 -0.00252027 1.90504e-05)
(-0.000517572 0.00340677 -5.09224e-05)
(-0.00190131 0.00460315 -3.10426e-05)
(-0.00354099 0.004559 -2.36978e-05)
(-0.00503983 0.00426526 -1.80336e-05)
(-0.00642176 0.00385682 -1.43811e-05)
(-0.00764846 0.00335549 -1.18777e-05)
(-0.00869091 0.00277326 -1.01014e-05)
(-0.00952509 0.0021218 -8.93148e-06)
(-0.0101308 0.00141297 -8.34743e-06)
(-0.0104914 0.000659026 -8.35947e-06)
(-0.0105941 -0.00012685 -8.98471e-06)
(-0.0104288 -0.000930701 -1.00467e-05)
(-0.00999003 -0.00173526 -1.15779e-05)
(-0.00927845 -0.00252057 -1.33743e-05)
(-0.00830087 -0.00326337 -1.50944e-05)
(-0.00707238 -0.00393698 -1.61879e-05)
(-0.00561929 -0.00451119 -1.56588e-05)
(-0.00398662 -0.00494216 -1.19454e-05)
(-0.00216112 -0.00506321 -4.47821e-06)
(-0.000594559 -0.00379048 2.29839e-05)
(-0.000560381 0.00462471 -5.96125e-05)
(-0.00206032 0.00623363 -3.86602e-05)
(-0.0038379 0.00616964 -3.06306e-05)
(-0.00546062 0.00576986 -2.42365e-05)
(-0.00695592 0.00521614 -1.99347e-05)
(-0.00828334 0.00453848 -1.68184e-05)
(-0.00941306 0.00375353 -1.4454e-05)
(-0.0103208 0.00287703 -1.27293e-05)
(-0.0109861 0.00192456 -1.1638e-05)
(-0.0113918 0.0009117 -1.12122e-05)
(-0.011524 -0.000145212 -1.15023e-05)
(-0.0113703 -0.00122868 -1.22723e-05)
(-0.0109219 -0.00231708 -1.36354e-05)
(-0.0101757 -0.00338479 -1.53841e-05)
(-0.00913427 -0.00440087 -1.71535e-05)
(-0.00780905 -0.00532868 -1.83272e-05)
(-0.00622451 -0.00612539 -1.77661e-05)
(-0.0044282 -0.00672818 -1.36565e-05)
(-0.00240562 -0.00690717 -5.32445e-06)
(-0.000662586 -0.00518733 2.52995e-05)
(-0.000617282 0.00595748 -6.9975e-05)
(-0.00227071 0.0080185 -4.7455e-05)
(-0.00422944 0.00793078 -3.85547e-05)
(-0.00601387 0.00741326 -3.12662e-05)
(-0.00765604 0.00669992 -2.62053e-05)
(-0.00911301 0.0058304 -2.24101e-05)
(-0.0103544 0.00482677 -1.94332e-05)
(-0.0113562 0.00370926 -1.71696e-05)
(-0.0120983 0.00249696 -1.56246e-05)
(-0.0125634 0.00120821 -1.48512e-05)
(-0.0127366 -0.000138398 -1.49818e-05)
(-0.0126027 -0.00152327 -1.56186e-05)
(-0.012148 -0.00292153 -1.70631e-05)
(-0.0113639 -0.00430274 -1.90568e-05)
(-0.0102464 -0.00562832 -2.12104e-05)
(-0.00880024 -0.00685051 -2.28178e-05)
(-0.00704558 -0.0079109 -2.2531e-05)
(-0.00503185 -0.00872219 -1.81556e-05)
(-0.00274244 -0.00897903 -8.79815e-06)
(-0.000757011 -0.00676206 2.63951e-05)
(-0.000690266 0.00743849 -8.31928e-05)
(-0.00253975 0.0100017 -5.86391e-05)
(-0.00472837 0.00988392 -4.85858e-05)
(-0.0067159 0.00923223 -4.00861e-05)
(-0.00854055 0.0083397 -3.39862e-05)
(-0.0101568 0.00725778 -2.92718e-05)
(-0.0115344 0.00601524 -2.54898e-05)
(-0.0126508 0.00463722 -2.25466e-05)
(-0.0134873 0.00314613 -2.04514e-05)
(-0.0140273 0.00156216 -1.92272e-05)
(-0.0142556 -9.52702e-05 -1.88401e-05)
(-0.0141536 -0.00180654 -1.9878e-05)
(-0.0137016 -0.00354558 -2.16959e-05)
(-0.0128827 -0.00527898 -2.42568e-05)
(-0.0116824 -0.00696134 -2.72067e-05)
(-0.0100946 -0.00853268 -2.97414e-05)
(-0.00813009 -0.00991533 -3.02194e-05)
(-0.00583777 -0.0109895 -2.58763e-05)
(-0.00319672 -0.0113559 -1.54061e-05)
(-0.000885517 -0.00857802 2.60732e-05)
(-0.000782176 0.00910716 -0.000100554)
(-0.00287743 0.0122345 -7.34793e-05)
(-0.00535176 0.0120765 -6.18391e-05)
(-0.00758789 0.0112674 -5.16003e-05)
(-0.00963249 0.0101691 -4.3962e-05)
(-0.0114377 0.00884796 -3.78813e-05)
(-0.0129751 0.00734119 -3.29214e-05)
(-0.0142255 0.00567966 -2.90125e-05)
(-0.0151735 0.00388874 -2.6177e-05)
(-0.0158049 0.00198898 -2.44051e-05)
(-0.0161054 -1.99341e-06 -2.34572e-05)
(-0.0160531 -0.00206538 -2.50395e-05)
(-0.0156205 -0.0041795 -2.74447e-05)
(-0.0147798 -0.00631089 -3.09598e-05)
(-0.0135004 -0.00840963 -3.52895e-05)
(-0.011758 -0.0104034 -3.9533e-05)
(-0.00954581 -0.012191 -4.16486e-05)
(-0.00690557 -0.013609 -3.80217e-05)
(-0.00380752 -0.0141362 -2.65537e-05)
(-0.00106065 -0.010719 2.33365e-05)
(-0.000897368 0.0110106 -0.000123816)
(-0.00329838 0.0147774 -9.36537e-05)
(-0.00612379 0.0145622 -7.97231e-05)
(-0.00865897 0.0135628 -6.68685e-05)
(-0.0109624 0.0122224 -5.68486e-05)
(-0.012985 0.010627 -4.86501e-05)
(-0.0147029 0.00882487 -4.18915e-05)
(-0.0161034 0.00685359 -3.65461e-05)
(-0.0171782 0.00474098 -3.26744e-05)
(-0.0179182 0.00250616 -3.03606e-05)
(-0.0183101 0.000162045 -2.97817e-05)
(-0.0183312 -0.00227859 -3.09963e-05)
(-0.0179472 -0.00480288 -3.40567e-05)
(-0.0171129 -0.0073833 -3.90211e-05)
(-0.0157753 -0.00997072 -4.55988e-05)
(-0.0138807 -0.012483 -5.28116e-05)
(-0.0113909 -0.0147917 -5.81329e-05)
(-0.00832594 -0.0166755 -5.67067e-05)
(-0.00463798 -0.0174475 -4.48318e-05)
(-0.00130408 -0.0133005 1.60527e-05)
(-0.00104277 0.0132072 -0.000155646)
(-0.00382465 0.0177031 -0.000121639)
(-0.00707944 0.017403 -0.000104203)
(-0.00996978 0.0161656 -8.72429e-05)
(-0.012571 0.0145332 -7.34227e-05)
(-0.0148356 0.0126177 -6.18752e-05)
(-0.0167488 0.0104821 -5.23279e-05)
(-0.0183096 0.00817182 -4.47978e-05)
(-0.0195212 0.0057166 -3.93501e-05)
(-0.020384 0.00313163 -3.60801e-05)
(-0.0208903 0.000421342 -3.51622e-05)
(-0.0210182 -0.00241548 -3.66226e-05)
(-0.0207254 -0.0053804 -4.07424e-05)
(-0.0199477 -0.00846159 -4.78768e-05)
(-0.0186007 -0.0116209 -5.79799e-05)
(-0.0165852 -0.0147747 -7.01664e-05)
(-0.0138085 -0.0177674 -8.14611e-05)
(-0.0102396 -0.0203033 -8.5341e-05)
(-0.00579457 -0.0214604 -7.4702e-05)
(-0.00165576 -0.0164915 -8.66998e-08)
(-0.00122997 0.0157732 -0.000200342)
(-0.00449049 0.0211024 -0.000161284)
(-0.00827023 0.0206714 -0.000138123)
(-0.0115778 0.019126 -0.000114459)
(-0.0145135 0.017132 -9.44374e-05)
(-0.0170366 0.0148359 -7.75482e-05)
(-0.0191491 0.0123199 -6.36821e-05)
(-0.0208692 0.00963909 -5.286e-05)
(-0.0222187 0.00682352 -4.5066e-05)
(-0.0232137 0.00388124 -4.03073e-05)
(-0.0238574 0.000802504 -3.87079e-05)
(-0.0241332 -0.00243419 -4.04677e-05)
(-0.0239934 -0.00585651 -4.59796e-05)
(-0.0233535 -0.00948207 -5.61114e-05)
(-0.022089 -0.0133011 -7.14378e-05)
(-0.0200352 -0.0172469 -9.16415e-05)
(-0.0170094 -0.0211487 -0.000113622)
(-0.0128697 -0.0246259 -0.000129148)
(-0.00746489 -0.0264061 -0.000123699)
(-0.00219349 -0.0205559 -3.50866e-05)
(-0.00147937 0.0188133 -0.000265175)
(-0.00535092 0.0250909 -0.000218758)
(-0.00977363 0.0244531 -0.000185626)
(-0.0135657 0.022495 -0.000150615)
(-0.0168648 0.0200415 -0.000120301)
(-0.0196482 0.0172845 -9.48804e-05)
(-0.021946 0.0143309 -7.4414e-05)
(-0.0238064 0.0112462 -5.87787e-05)
(-0.0252794 0.00805896 -4.76679e-05)
(-0.0264054 0.00476578 -4.08068e-05)
(-0.027206 0.0013363 -3.81368e-05)
(-0.0276774 -0.00227992 -3.99222e-05)
(-0.0277734 -0.00614952 -4.68565e-05)
(-0.0273925 -0.0103392 -6.06074e-05)
(-0.0263662 -0.0148953 -8.29816e-05)
(-0.0244433 -0.0198037 -0.000115296)
(-0.0213041 -0.0249138 -0.000155542)
(-0.0165779 -0.0297844 -0.000195182)
(-0.00999899 -0.032599 -0.000203624)
(-0.00308095 -0.025939 -0.000110341)
(-0.00182927 0.0224859 -0.000363168)
(-0.00649779 0.0298249 -0.000304346)
(-0.0117078 0.0288503 -0.000252688)
(-0.0160536 0.0263207 -0.000197801)
(-0.0197282 0.0232694 -0.00015017)
(-0.0227479 0.0199447 -0.000111221)
(-0.025188 0.0164837 -8.09467e-05)
(-0.0271416 0.0129616 -5.86371e-05)
(-0.0286994 0.00940196 -4.32008e-05)
(-0.0299367 0.00578453 -3.36749e-05)
(-0.0309034 0.00205133 -2.94069e-05)
(-0.0316193 -0.00188621 -3.05321e-05)
(-0.032053 -0.00614667 -3.81597e-05)
(-0.0320995 -0.0108703 -5.50419e-05)
(-0.0315543 -0.0161994 -8.51579e-05)
(-0.0300678 -0.0222338 -0.000133601)
(-0.0271445 -0.0289232 -0.000202623)
(-0.0219631 -0.0358863 -0.000289844)
(-0.0140846 -0.0404468 -0.000331931)
(-0.00468338 -0.0334544 -0.000275298)
(-0.00235813 0.0269425 -0.000515808)
(-0.0080981 0.0354659 -0.000432755)
(-0.0142603 0.0339653 -0.000346432)
(-0.0192188 0.0306341 -0.000256382)
(-0.0232453 0.0267942 -0.000179573)
(-0.0264347 0.0227623 -0.000119625)
(-0.0289295 0.0187113 -7.55066e-05)
(-0.0308884 0.0147212 -4.47875e-05)
(-0.0324565 0.0108038 -2.45576e-05)
(-0.033756 0.00691523 -1.22926e-05)
(-0.0348767 0.00296474 -5.90143e-06)
(-0.0358754 -0.00118086 -4.55392e-06)
(-0.0367574 -0.00570654 -1.04913e-05)
(-0.0374449 -0.0108447 -2.69522e-05)
(-0.0377301 -0.0168837 -6.10987e-05)
(-0.0371865 -0.0241356 -0.000124886)
(-0.0351634 -0.0327954 -0.000232643)
(-0.0300145 -0.0428586 -0.000407908)
(-0.0211202 -0.0503011 -0.000530493)
(-0.00786307 -0.0447815 -0.000635819)
(-0.00315368 0.0331215 -0.000796913)
(-0.010337 0.0424781 -0.000642517)
(-0.0176766 0.039994 -0.000479774)
(-0.023305 0.0354548 -0.000321934)
(-0.0276044 0.0305518 -0.000194908)
(-0.0308312 0.0256321 -0.000103401)
(-0.0332282 0.0208971 -4.15306e-05)
(-0.0350475 0.0164166 -2.41108e-06)
(-0.0365031 0.0121768 2.13166e-05)
(-0.0377727 0.00810123 3.56456e-05)
(-0.0389957 0.00406154 4.47181e-05)
(-0.0402859 -0.000127392 5.29567e-05)
(-0.041711 -0.00469429 5.28137e-05)
(-0.0432691 -0.00998341 4.6809e-05)
(-0.0448356 -0.0164736 2.4226e-05)
(-0.0459949 -0.0248185 -3.5647e-05)
(-0.0461195 -0.0356226 -0.000173534)
(-0.042181 -0.0500582 -0.000482323)
(-0.0339237 -0.0619918 -0.000757725)
(-0.0147082 -0.0631243 -0.00140316)
(-0.00507748 0.038786 -0.00115269)
(-0.0144913 0.0504348 -0.000940783)
(-0.0225953 0.0468046 -0.000639113)
(-0.0287467 0.0407224 -0.000367823)
(-0.0330664 0.0344233 -0.000158275)
(-0.03608 0.0283794 -2.27804e-05)
(-0.0381274 0.0228544 5.65651e-05)
(-0.0395827 0.0178782 9.81172e-05)
(-0.040737 0.0133847 0.000118764)
(-0.041827 0.00925114 0.000130021)
(-0.043051 0.00532111 0.0001392)
(-0.044565 0.00139734 0.000150748)
(-0.046532 -0.00279111 0.000184256)
(-0.0491213 -0.00770468 0.000215691)
(-0.0524251 -0.0139374 0.000254287)
(-0.0561713 -0.0227289 0.000274771)
(-0.0603614 -0.0350016 0.000217623)
(-0.0597102 -0.0557841 -0.00020157)
(-0.0562092 -0.0749418 -0.000618107)
(-0.0276606 -0.0951935 -0.00266488)
(-0.0055677 0.0555826 -0.00216465)
(-0.0174437 0.0600578 -0.00134321)
(-0.0287976 0.0541709 -0.000793296)
(-0.0357561 0.0452424 -0.000269662)
(-0.0398532 0.037317 5.7266e-05)
(-0.0422072 0.0302256 0.00022345)
(-0.0434257 0.0240651 0.000295305)
(-0.0441035 0.0187485 0.000314288)
(-0.0446103 0.0141543 0.000311697)
(-0.045214 0.0101224 0.000306968)
(-0.0461244 0.00646181 0.000315306)
(-0.0475611 0.00292587 0.000348747)
(-0.0498391 -0.000797055 0.000416429)
(-0.0532414 -0.00520002 0.000543081)
(-0.0583494 -0.0108595 0.000774575)
(-0.0649064 -0.0196968 0.00111918)
(-0.0757882 -0.0328107 0.00152202)
(-0.0800795 -0.0603311 0.00133494)
(-0.0863269 -0.0918914 0.00102826)
(-0.0393728 -0.15122 -0.00372751)
(-0.0152716 0.0545249 -0.00338586)
(-0.0359013 0.0788789 -0.00278958)
(-0.0387836 0.0673482 -0.0012801)
(-0.0452601 0.0550557 -0.000313185)
(-0.0462227 0.0435225 0.000332828)
(-0.0460184 0.0336295 0.000623472)
(-0.0449873 0.0257658 0.000719362)
(-0.0437799 0.0195891 0.000708832)
(-0.0427341 0.0147396 0.000659171)
(-0.0421086 0.0108719 0.000609554)
(-0.042137 0.00774068 0.000586716)
(-0.0430305 0.00513366 0.000611914)
(-0.0451372 0.00299695 0.000732267)
(-0.0486459 0.00105028 0.00101346)
(-0.0548111 -0.000176821 0.00159317)
(-0.0620982 -0.00536891 0.00258381)
(-0.0768809 -0.0104979 0.0043797)
(-0.0773652 -0.0483172 0.00532853)
(-0.0935706 -0.0949894 0.00595986)
(-0.0169637 -0.227928 -0.00444782)
(-0.0662912 0.121955 -0.00640204)
(-0.0542365 0.0694489 -0.001202)
(-0.0503252 0.0589673 0.000508261)
(-0.0363894 0.044792 0.00203166)
(-0.0229883 0.0331178 0.00251095)
(-0.0113535 0.0249219 0.00240377)
(-0.00149345 0.0189988 0.00209179)
(0.0063419 0.0145027 0.00173355)
(0.0123667 0.0110564 0.00143124)
(0.016851 0.00840909 0.00120505)
(0.0200029 0.00642742 0.00108006)
(0.0222165 0.00486605 0.00106409)
(0.0231307 0.0039558 0.00124955)
(0.0247505 0.00277904 0.0016986)
(0.0219608 0.00217691 0.00274546)
(0.0285067 -0.00358323 0.00461523)
(0.0146857 -0.0156404 0.00798244)
(0.0423338 -0.0626368 0.0109104)
(-0.00972303 -0.156387 0.0109178)
(0.0562908 -0.299005 -0.0101357)
(0.128863 0.14104 -0.00935504)
(0.162751 0.0825145 -0.00753512)
(0.241278 0.0566053 -0.00505427)
(0.288922 0.0394667 -0.00214881)
(0.321584 0.0268469 -0.000122205)
(0.345617 0.0180923 0.000936896)
(0.363435 0.0123994 0.00138707)
(0.376521 0.00875925 0.00147423)
(0.386166 0.00636478 0.00137746)
(0.39356 0.00470402 0.00119443)
(0.39874 0.0035865 0.00108146)
(0.403696 0.00267563 0.000891196)
(0.404828 0.00200246 0.0010915)
(0.411376 0.0016941 0.000910916)
(0.403755 -0.000370835 0.00193293)
(0.419491 0.000720237 0.00240383)