/*--------------------------------*- C++ -*----------------------------------*\
  =========                 |
  \\      /  F ield         | OpenFOAM: The Open Source CFD Toolbox
   \\    /   O peration     | Website:  https://openfoam.org
    \\  /    A nd           | Version:  10
     \\/     M anipulation  |
\*---------------------------------------------------------------------------*/
FoamFile
{
    format      ascii;
    class       surfaceScalarField;
    location    "6.825";
    object      phi;
}
// * * * * * * * * * * * * * * * * * * * * * * * * * * * * * * * * * * * * * //

dimensions      [0 3 -1 0 0 0 0];

internalField   nonuniform List<scalar> 
760
(
-1.03363e-05
1.03363e-05
-3.37077e-05
2.33715e-05
-6.16377e-05
2.79299e-05
-9.06327e-05
2.89951e-05
-0.000119547
2.89144e-05
-0.000147953
2.84059e-05
-0.000175436
2.74825e-05
-0.000201371
2.59354e-05
-0.000224854
2.34835e-05
-0.000244663
1.98085e-05
-0.000259238
1.45751e-05
-0.000266711
7.47291e-06
-0.000265006
-1.70462e-06
-0.000252065
-1.29412e-05
-0.000226308
-2.57568e-05
-0.000187258
-3.90506e-05
-0.000136539
-5.07186e-05
-7.93242e-05
-5.72148e-05
-2.64342e-05
-5.28901e-05
-2.64342e-05
-2.47528e-05
3.50891e-05
-7.01247e-05
6.87433e-05
-0.00012254
8.03448e-05
-0.000176292
8.27476e-05
-0.00022917
8.17926e-05
-0.000280065
7.9301e-05
-0.000327984
7.5401e-05
-0.000371719
6.967e-05
-0.000409727
6.14923e-05
-0.000440076
5.01572e-05
-0.000460408
3.4907e-05
-0.000468008
1.50734e-05
-0.000460118
-9.59492e-06
-0.000433808
-3.92517e-05
-0.000387096
-7.24684e-05
-0.000319646
-0.000106501
-0.000234204
-0.000136161
-0.000138823
-0.000152596
-4.98185e-05
-0.000141894
-7.62527e-05
-3.10301e-05
6.61192e-05
-8.62083e-05
0.000123921
-0.000149222
0.000143359
-0.000213373
0.000146898
-0.00027611
0.00014453
-0.000336155
0.000139345
-0.000392381
0.000131627
-0.000443469
0.000120758
-0.000487763
0.000105786
-0.000523182
8.55754e-05
-0.000547193
5.89184e-05
-0.00055685
2.47305e-05
-0.000548587
-1.78576e-05
-0.000518943
-6.88957e-05
-0.000465092
-0.00012632
-0.000385956
-0.000185637
-0.000284113
-0.000238004
-0.000168908
-0.000267801
-6.05e-05
-0.000250302
-0.000136753
-3.34119e-05
9.95311e-05
-9.29024e-05
0.000183412
-0.000160639
0.000211096
-0.000229502
0.000215761
-0.000296929
0.000211957
-0.000361727
0.000204143
-0.000422889
0.000192788
-0.000479219
0.000177089
-0.000529175
0.000155743
-0.000570721
0.000127121
-0.000601196
8.93928e-05
-0.000617253
4.07876e-05
-0.000614817
-2.0293e-05
-0.000588859
-9.48536e-05
-0.000534758
-0.000180421
-0.000449366
-0.000271029
-0.000333985
-0.000353384
-0.000199192
-0.000402595
-7.02887e-05
-0.000379205
-0.000207041
-3.44146e-05
0.000133946
-9.63384e-05
0.000245336
-0.000166967
0.000281724
-0.000238946
0.00028774
-0.000309817
0.000282829
-0.000378607
0.000272933
-0.000444572
0.000258753
-0.000506806
0.000239322
-0.000564037
0.000212973
-0.000614416
0.000177501
-0.000655254
0.00013023
-0.000682722
6.82554e-05
-0.000691838
-1.11771e-05
-0.000675591
-0.0001111
-0.000626329
-0.000229683
-0.000537165
-0.000360193
-0.000406139
-0.00048441
-0.000244175
-0.000564559
-8.46989e-05
-0.000538681
-0.00029174
-3.51043e-05
0.00016905
-9.90856e-05
0.000309317
-0.000172323
0.000354962
-0.000247254
0.000362671
-0.000321573
0.000357148
-0.000394614
0.000345974
-0.000466023
0.000330162
-0.000535345
0.000308644
-0.000601781
0.00027941
-0.000663906
0.000239626
-0.000719256
0.00018558
-0.000763747
0.000112746
-0.000791451
1.65263e-05
-0.000792941
-0.00010961
-0.000756108
-0.000266515
-0.000667853
-0.000448448
-0.000519296
-0.000632967
-0.000318112
-0.000765743
-0.000109228
-0.000747565
-0.000400968
-3.57956e-05
0.000204845
-0.000101927
0.000375448
-0.000177897
0.000430932
-0.000255895
0.000440668
-0.000333798
0.000435051
-0.000411325
0.000423502
-0.000488648
0.000407485
-0.000565963
0.000385958
-0.000643237
0.000356684
-0.000719868
0.000316257
-0.000794136
0.000259848
-0.000862365
0.000180976
-0.000917547
7.17084e-05
-0.000949204
-7.79533e-05
-0.000939135
-0.000276585
-0.000864874
-0.000522709
-0.000703629
-0.000794212
-0.000449056
-0.00102032
-0.000156853
-0.00103977
-0.000557822
-3.65432e-05
0.000241389
-0.000105009
0.000443914
-0.000183836
0.00050976
-0.000264887
0.000521719
-0.000346234
0.000516398
-0.000428055
0.000505322
-0.000511177
0.000490608
-0.000596676
0.000471457
-0.000685652
0.000445661
-0.00077889
0.000409494
-0.00087623
0.000357189
-0.000975479
0.000280225
-0.00107049
0.000166724
-0.00115177
3.32542e-06
-0.00119481
-0.000233546
-0.00116646
-0.000551063
-0.00101727
-0.000943398
-0.000699084
-0.0013385
-0.000261548
-0.0014773
-0.00081937
-3.73815e-05
0.00027877
-0.00010839
0.000514922
-0.000190101
0.000591471
-0.000273935
0.000605553
-0.000358153
0.000600616
-0.000443432
0.000590601
-0.000531363
0.000578539
-0.000624114
0.000564208
-0.000724314
0.000545861
-0.000834855
0.000520035
-0.000958422
0.000480756
-0.00109648
0.000418277
-0.00124739
0.00031764
-0.00140207
0.000158007
-0.00154587
-8.97452e-05
-0.00162942
-0.000467517
-0.00155395
-0.00101886
-0.00117126
-0.0017212
-0.000487637
-0.00216093
-0.00130701
-3.844e-05
0.00031721
-0.000112299
0.000588781
-0.000196841
0.000676013
-0.000282905
0.000691618
-0.000368919
0.00068663
-0.000456063
0.000677746
-0.00054672
0.000669195
-0.00064424
0.000661728
-0.000753072
0.000654693
-0.000878911
0.000645875
-0.00102868
0.000630522
-0.0012101
0.000599704
-0.00143088
0.000538418
-0.00169631
0.000423434
-0.00200225
0.000216198
-0.00229492
-0.000174854
-0.00237263
-0.000941144
-0.00191143
-0.0021824
-0.000878745
-0.00319361
-0.00218575
-4.00371e-05
0.000357247
-0.000117329
0.000666073
-0.000204653
0.000763337
-0.000292137
0.000779102
-0.00037835
0.000772842
-0.000464942
0.000764338
-0.000554999
0.000759253
-0.000652945
0.000759674
-0.00076498
0.000766728
-0.000899798
0.000780693
-0.00106961
0.000800332
-0.00129159
0.00082169
-0.00158951
0.000836339
-0.00199281
0.000826725
-0.00251053
0.000733926
-0.00304179
0.000356403
-0.0032585
-0.000724435
-0.00269167
-0.00274923
-0.00138372
-0.00450156
-0.00356947
-4.28261e-05
0.000400073
-0.000124679
0.000747926
-0.000214844
0.000853501
-0.000302721
0.000866979
-0.000387062
0.000857184
-0.000469935
0.00084721
-0.000554899
0.000844217
-0.000647027
0.000851802
-0.000753696
0.000873397
-0.00088594
0.000912937
-0.00106067
0.000975065
-0.00130427
0.00106529
-0.00165614
0.0011882
-0.00215987
0.00133046
-0.00281581
0.00138987
-0.00344005
0.000980646
-0.00364704
-0.000517448
-0.003086
-0.00331027
-0.00184237
-0.00574519
-0.00541184
-4.78553e-05
0.000447929
-0.000136221
0.000836291
-0.000229611
0.000946892
-0.000316867
0.000954234
-0.00039696
0.000937278
-0.000472323
0.000922574
-0.000546773
0.000918667
-0.000625172
0.000930201
-0.000714662
0.000962886
-0.000826413
0.00102469
-0.00097836
0.00112701
-0.00119884
0.00128577
-0.00152841
0.00151778
-0.00199717
0.00179921
-0.0025677
0.0019604
-0.00304976
0.0014627
-0.00319585
-0.000371355
-0.00286519
-0.00364093
-0.00192462
-0.00668576
-0.00733647
-5.8257e-05
0.000506186
-0.000156684
0.000934719
-0.000252933
0.00104314
-0.000337035
0.00103834
-0.000409862
0.0010101
-0.000474323
0.000987035
-0.000533267
0.000977611
-0.00059037
0.000987304
-0.000650668
0.00102318
-0.000721735
0.00109576
-0.000815553
0.00122083
-0.000948828
0.00141904
-0.00114284
0.00171179
-0.00139824
0.00205461
-0.00168144
0.0022436
-0.00189451
0.00167577
-0.00200718
-0.000258682
-0.00202508
-0.00362303
-0.00152456
-0.00718628
-0.00886102
-7.10053e-05
0.000577191
-0.000183024
0.00104674
-0.000286015
0.00114613
-0.00037069
0.00112301
-0.000435972
0.00107539
-0.000485837
0.0010369
-0.000523539
0.00101531
-0.000551328
0.00101509
-0.000570668
0.00104252
-0.000582733
0.00110782
-0.000589291
0.00122739
-0.000588865
0.00141862
-0.000579381
0.00170231
-0.000539361
0.00201459
-0.000480423
0.00218466
-0.000441133
0.00163648
-0.000527546
-0.000172269
-0.000878942
-0.00327163
-0.00092538
-0.00713984
-0.0097864
-0.000138261
0.000715452
-0.000264924
0.0011734
-0.00035476
0.00123597
-0.000416486
0.00118474
-0.000461144
0.00112004
-0.000492534
0.00106829
-0.000510145
0.00103292
-0.000511278
0.00101623
-0.000491915
0.00102316
-0.000445395
0.0010613
-0.000362865
0.00114486
-0.000228934
0.00128469
-2.11009e-05
0.00149448
0.000262931
0.00173055
0.000607224
0.00184037
0.000849547
0.00139416
0.000769192
-9.19142e-05
8.31242e-05
-0.00258557
-0.000385865
-0.00667085
-0.0101723
-8.99908e-05
0.000805443
-0.000280812
0.00136422
-0.000412391
0.00136755
-0.000492692
0.00126504
-0.000535558
0.00116291
-0.000550905
0.00108364
-0.000542106
0.00102413
-0.000508051
0.00098217
-0.000444035
0.000959145
-0.000338772
0.000956037
-0.000177718
0.000983806
6.11933e-05
0.00104578
0.000398116
0.00115755
0.000849168
0.0012795
0.00135741
0.00133213
0.00172315
0.00102841
0.0016193
1.19398e-05
0.000857122
-0.00182339
0.000177092
-0.00599082
-0.00999518
-0.000384612
0.00119005
-0.000457622
0.00143723
-0.000527328
0.00143725
-0.000588126
0.00132584
-0.000603006
0.00117779
-0.000578085
0.00105872
-0.000518417
0.000964457
-0.000423746
0.000887499
-0.000295246
0.000830645
-0.000124468
0.000785259
9.64339e-05
0.000762904
0.000384129
0.00075808
0.000756152
0.000785532
0.00121133
0.000824322
0.0017215
0.000821956
0.00210255
0.000647364
0.002219
-0.000104506
0.00177757
-0.00138197
0.000950131
-0.00516338
-0.00904505
-0.00136013
0.00255018
-0.00132641
0.00140351
-0.00107681
0.00118765
-0.000716169
0.000965197
-0.000333823
0.000795444
5.26619e-05
0.00067223
0.000431282
0.000585837
0.000800445
0.000518336
0.00116138
0.000469713
0.00151839
0.000428245
0.0018804
0.000400899
0.00225579
0.000382689
0.00267176
0.00036956
0.00313189
0.000364197
0.00365261
0.000301235
0.00412025
0.000179722
0.00429311
-0.000277366
0.00410203
-0.00119088
0.00257843
-0.00363979
-0.00646661
0.00255018
0.0039537
0.00514135
0.00610654
0.00690199
0.00757422
0.00816006
0.00867839
0.0091481
0.00957635
0.00997725
0.0103599
0.0107295
0.0110937
0.0113949
0.0115747
0.0112973
0.0101064
0.00646661
)
;

boundaryField
{
    movingWall
    {
        type            calculated;
        value           uniform 0;
    }
    fixedWalls
    {
        type            calculated;
        value           uniform 0;
    }
    frontAndBack
    {
        type            empty;
        value           nonuniform List<scalar> 0();
    }
}


// ************************************************************************* //
