/*--------------------------------*- C++ -*----------------------------------*\
  =========                 |
  \\      /  F ield         | OpenFOAM: The Open Source CFD Toolbox
   \\    /   O peration     | Website:  https://openfoam.org
    \\  /    A nd           | Version:  10
     \\/     M anipulation  |
\*---------------------------------------------------------------------------*/
FoamFile
{
    format      ascii;
    class       volScalarField;
    location    "7.275";
    object      p;
}
// * * * * * * * * * * * * * * * * * * * * * * * * * * * * * * * * * * * * * //

dimensions      [0 2 -2 0 0 0 0];

internalField   nonuniform List<scalar> 
475
(
-0.0582132
-0.0836128
-0.113004
-0.136652
-0.159428
-0.0839698
-0.0972949
-0.113551
-0.132599
-0.149493
-0.0820813
-0.0914243
-0.106393
-0.123828
-0.140171
-0.0813659
-0.0921903
-0.107066
-0.12244
-0.135964
-0.0515398
-0.0784744
-0.10206
-0.119688
-0.132401
-0.177707
-0.188117
-0.191798
-0.193907
-0.197067
-0.201694
-0.207021
-0.210996
-0.211964
-0.208947
-0.201657
-0.190428
-0.176292
-0.160806
-0.145386
-0.130621
-0.116991
-0.106677
-0.101701
-0.101669
-0.103826
-0.105741
-0.105497
-0.102133
-0.0964126
-0.0892123
-0.0804116
-0.0708034
-0.0611145
-0.0518608
-0.043326
-0.0355361
-0.028305
-0.0216274
-0.0158345
-0.0113233
-0.00821663
-0.0061075
-0.00450179
-0.00297456
-0.00152318
-0.000251883
0.000586089
0.000835732
0.000497648
-0.16606
-0.177548
-0.183332
-0.185283
-0.18597
-0.186463
-0.186709
-0.186035
-0.183749
-0.179558
-0.173501
-0.165896
-0.157338
-0.148614
-0.140047
-0.131027
-0.122483
-0.116659
-0.115178
-0.117645
-0.121432
-0.124029
-0.123509
-0.118886
-0.111099
-0.10131
-0.090351
-0.078763
-0.0671216
-0.055962
-0.045553
-0.0359972
-0.0273497
-0.0197097
-0.0133854
-0.00869717
-0.00562782
-0.00366046
-0.00222176
-0.00085931
0.000419614
0.00144554
0.00197574
0.00175917
0.000961504
-0.153497
-0.162963
-0.168483
-0.170644
-0.170481
-0.168812
-0.16605
-0.162381
-0.157971
-0.153082
-0.148778
-0.146146
-0.145474
-0.144625
-0.139331
-0.130152
-0.125316
-0.124981
-0.12576
-0.127525
-0.130016
-0.130631
-0.128248
-0.122442
-0.113812
-0.103363
-0.0916948
-0.0794989
-0.067411
-0.0558603
-0.0450488
-0.0350652
-0.0260354
-0.0181936
-0.0118298
-0.0071261
-0.00394422
-0.00181557
-0.000257116
0.00107798
0.00218318
0.00292495
0.00310315
0.00251012
0.00128559
-0.146649
-0.154388
-0.159025
-0.160714
-0.159644
-0.156333
-0.151128
-0.144564
-0.137243
-0.130395
-0.126471
-0.127724
-0.137496
-0.14865
-0.143549
-0.124207
-0.112424
-0.113648
-0.122223
-0.129923
-0.134113
-0.134265
-0.130606
-0.123704
-0.114084
-0.102794
-0.0906113
-0.0781441
-0.0658995
-0.0542403
-0.0433717
-0.0334396
-0.0245794
-0.0169772
-0.0108431
-0.00623404
-0.00297212
-0.000695455
0.00096328
0.00225713
0.00318936
0.00369463
0.00358982
0.00279108
0.00133375
-0.141946
-0.148906
-0.153208
-0.154611
-0.153055
-0.148846
-0.142381
-0.13449
-0.125827
-0.118395
-0.113839
-0.116855
-0.129989
-0.144359
-0.1463
-0.138402
-0.129142
-0.124427
-0.124434
-0.127265
-0.129316
-0.128982
-0.125607
-0.119091
-0.110212
-0.099627
-0.0880385
-0.0760704
-0.0642187
-0.0528321
-0.0421584
-0.0324048
-0.02374
-0.0163458
-0.0103652
-0.00580974
-0.00250438
-0.000154433
0.00154346
0.00278369
0.00359858
0.00392864
0.00365026
0.00274949
0.00121541
-0.203173
-0.203849
-0.204942
-0.20632
-0.208957
-0.214049
-0.22093
-0.227628
-0.231652
-0.230503
-0.222796
-0.208085
-0.186781
-0.160104
-0.130261
-0.099946
-0.0718676
-0.0478682
-0.029036
-0.0160404
-0.0086119
-0.00585349
-0.00653059
-0.00935993
-0.01322
-0.0172089
-0.0206955
-0.0234314
-0.0255532
-0.0272349
-0.0284866
-0.029177
-0.029071
-0.0280552
-0.0262146
-0.0236755
-0.0206004
-0.0174238
-0.0144359
-0.0117678
-0.00938988
-0.00708896
-0.00482728
-0.00264739
-0.000629815
-0.19719
-0.199306
-0.200979
-0.204014
-0.208861
-0.215953
-0.224342
-0.23212
-0.236991
-0.236692
-0.229914
-0.216011
-0.19492
-0.168042
-0.137617
-0.106385
-0.0776847
-0.0531542
-0.0339218
-0.0204266
-0.0125305
-0.00934277
-0.00959635
-0.0120087
-0.0155099
-0.0192046
-0.0223524
-0.0246123
-0.0262176
-0.0275169
-0.0286513
-0.029393
-0.0294627
-0.0284962
-0.0263447
-0.0231507
-0.0195702
-0.0161004
-0.0133147
-0.0111714
-0.00931474
-0.00735436
-0.00517851
-0.00297021
-0.00081614
-0.206147
-0.204589
-0.204403
-0.205907
-0.21078
-0.218855
-0.22821
-0.236643
-0.242267
-0.242112
-0.235267
-0.221298
-0.200428
-0.174099
-0.144451
-0.114297
-0.0865553
-0.0629939
-0.0445388
-0.0317449
-0.0243481
-0.0213312
-0.0213844
-0.0232044
-0.0257151
-0.0281116
-0.0299245
-0.0309812
-0.0312816
-0.031179
-0.0308941
-0.0301456
-0.0286617
-0.0265103
-0.0239218
-0.0210485
-0.0179401
-0.0149762
-0.0123525
-0.0101484
-0.00828134
-0.00647286
-0.00458129
-0.00266348
-0.000856461
-0.193394
-0.195633
-0.19702
-0.200239
-0.206068
-0.214514
-0.223926
-0.232389
-0.237908
-0.238405
-0.232442
-0.219544
-0.200041
-0.175843
-0.149145
-0.122285
-0.0977961
-0.0773765
-0.061851
-0.0516327
-0.0461411
-0.0440295
-0.0438649
-0.0444786
-0.0450181
-0.0449409
-0.044038
-0.042347
-0.0399052
-0.0370276
-0.0339921
-0.0309298
-0.0278593
-0.024888
-0.0218986
-0.0186693
-0.0153353
-0.0121891
-0.00960524
-0.00763094
-0.0060805
-0.00463252
-0.00322207
-0.00181236
-0.000662487
-0.229466
-0.208169
-0.2045
-0.203188
-0.20604
-0.212928
-0.2211
-0.22774
-0.231311
-0.230158
-0.223475
-0.210983
-0.193332
-0.172373
-0.150228
-0.128572
-0.109167
-0.0938272
-0.0836323
-0.0782545
-0.0762172
-0.0757542
-0.0753816
-0.0742001
-0.0717205
-0.0678453
-0.063183
-0.0574686
-0.0512154
-0.0448709
-0.0388088
-0.033217
-0.0280196
-0.0230939
-0.0185914
-0.0147374
-0.0116211
-0.00912819
-0.00714589
-0.00541404
-0.00385924
-0.0024277
-0.00129161
-0.000459709
-0.000128683
)
;

boundaryField
{
    inlet
    {
        type            zeroGradient;
    }
    outlet
    {
        type            fixedValue;
        value           uniform 0;
    }
    upperWall
    {
        type            zeroGradient;
    }
    lowerWall
    {
        type            zeroGradient;
    }
    frontAndBack
    {
        type            empty;
    }
}


// ************************************************************************* //
