/*--------------------------------*- C++ -*----------------------------------*\
  =========                 |
  \\      /  F ield         | OpenFOAM: The Open Source CFD Toolbox
   \\    /   O peration     | Website:  https://openfoam.org
    \\  /    A nd           | Version:  10
     \\/     M anipulation  |
\*---------------------------------------------------------------------------*/
FoamFile
{
    format      ascii;
    class       volVectorField;
    location    "2.8";
    object      U;
}
// * * * * * * * * * * * * * * * * * * * * * * * * * * * * * * * * * * * * * //

dimensions      [0 1 -1 0 0 0 0];

internalField   nonuniform List<vector> 
400
(
(-0.000214663 0.000212615 0)
(-0.00104939 0.000404215 0)
(-0.00221072 0.00042652 0)
(-0.00327162 0.000409065 0)
(-0.00427287 0.000379532 0)
(-0.00518329 0.00034136 0)
(-0.00597909 0.000294737 0)
(-0.00663958 0.000239636 0)
(-0.00714474 0.000176206 0)
(-0.0074758 0.0001049 0)
(-0.00761606 2.66284e-05 0)
(-0.00755106 -5.78953e-05 0)
(-0.0072703 -0.000146605 0)
(-0.00676915 -0.000236806 0)
(-0.00604989 -0.000325096 0)
(-0.00512313 -0.000407314 0)
(-0.00401199 -0.000478151 0)
(-0.002764 -0.000528054 0)
(-0.00135041 -0.000520313 0)
(-0.000293293 -0.000297296 0)
(-0.000419509 0.00105182 0)
(-0.00179456 0.00174386 0)
(-0.00359782 0.00181292 0)
(-0.00525401 0.00172962 0)
(-0.00680724 0.00159319 0)
(-0.00820968 0.00141838 0)
(-0.00942428 0.00120796 0)
(-0.0104199 0.000963729 0)
(-0.0111677 0.000687859 0)
(-0.0116416 0.000383249 0)
(-0.01182 5.35571e-05 0)
(-0.0116848 -0.000296027 0)
(-0.0112231 -0.000656904 0)
(-0.0104314 -0.00101902 0)
(-0.00931592 -0.00136956 0)
(-0.00789441 -0.00169279 0)
(-0.00620269 -0.00196875 0)
(-0.00430809 -0.00216125 0)
(-0.00218323 -0.00213967 0)
(-0.000522344 -0.00134186 0)
(-0.000471855 0.00227549 0)
(-0.00199986 0.00358834 0)
(-0.00399092 0.00370611 0)
(-0.00581667 0.00352761 0)
(-0.0075272 0.00324033 0)
(-0.00907093 0.00287405 0)
(-0.0104081 0.00243591 0)
(-0.0115055 0.00193092 0)
(-0.0123323 0.00136456 0)
(-0.0128611 0.000743414 0)
(-0.0130683 7.55341e-05 0)
(-0.012932 -0.000628328 0)
(-0.0124373 -0.00135271 0)
(-0.011579 -0.00207773 0)
(-0.0103607 -0.00277828 0)
(-0.00879867 -0.00342367 0)
(-0.0069294 -0.0039748 0)
(-0.00482572 -0.00436068 0)
(-0.00245592 -0.00433357 0)
(-0.000591824 -0.00282401 0)
(-0.000499789 0.00350685 0)
(-0.00212544 0.00546346 0)
(-0.00424585 0.00562997 0)
(-0.00618833 0.00535473 0)
(-0.00801008 0.00491648 0)
(-0.00965759 0.00435967 0)
(-0.0110901 0.00369535 0)
(-0.0122735 0.00293134 0)
(-0.0131758 0.00207589 0)
(-0.013768 0.00113849 0)
(-0.0140242 0.000131089 0)
(-0.0139191 -0.000931024 0)
(-0.0134319 -0.00202759 0)
(-0.0125509 -0.00312985 0)
(-0.0112738 -0.00420047 0)
(-0.00961126 -0.00519266 0)
(-0.00759646 -0.0060458 0)
(-0.0053068 -0.00664977 0)
(-0.00270617 -0.00662896 0)
(-0.00065208 -0.00436624 0)
(-0.000533984 0.00482139 0)
(-0.00227878 0.00746857 0)
(-0.00455831 0.00768704 0)
(-0.00664573 0.0073098 0)
(-0.00860632 0.00671327 0)
(-0.0103845 0.00595757 0)
(-0.0119387 0.00505792 0)
(-0.0132342 0.00402486 0)
(-0.0142383 0.00286886 0)
(-0.0149198 0.00160141 0)
(-0.0152494 0.000236417 0)
(-0.0151972 -0.00120749 0)
(-0.0147351 -0.00270579 0)
(-0.0138412 -0.00422265 0)
(-0.0125022 -0.00570908 0)
(-0.0107184 -0.00710044 0)
(-0.00851583 -0.00830989 0)
(-0.00597606 -0.00917869 0)
(-0.00305837 -0.00918256 0)
(-0.000738373 -0.00608733 0)
(-0.000579235 0.00624163 0)
(-0.00247912 0.00964034 0)
(-0.00496463 0.00991524 0)
(-0.0072393 0.00942926 0)
(-0.00937853 0.00866533 0)
(-0.0113244 0.00770074 0)
(-0.0130348 0.00655529 0)
(-0.0144751 0.00524209 0)
(-0.0156121 0.00377318 0)
(-0.0164131 0.00216079 0)
(-0.0168452 0.000419004 0)
(-0.0168727 -0.00143347 0)
(-0.0164575 -0.00337054 0)
(-0.0155635 -0.00535132 0)
(-0.014161 -0.00731643 0)
(-0.0122323 -0.00918216 0)
(-0.00978877 -0.0108292 0)
(-0.00691365 -0.0120359 0)
(-0.00355869 -0.0120969 0)
(-0.000863301 -0.0080628 0)
(-0.000636775 0.00779609 0)
(-0.00273238 0.0120223 0)
(-0.00547629 0.0123583 0)
(-0.0079841 0.0117541 0)
(-0.0103442 0.0108106 0)
(-0.0124964 0.00962443 0)
(-0.0143987 0.00822071 0)
(-0.0160177 0.00661512 0)
(-0.0173209 0.00482049 0)
(-0.0182752 0.00284804 0)
(-0.0188447 0.000709372 0)
(-0.0189878 -0.00158002 0)
(-0.0186539 -0.00399753 0)
(-0.0177881 -0.00650196 0)
(-0.0163358 -0.00902723 0)
(-0.0142504 -0.0114709 0)
(-0.0115153 -0.0136741 0)
(-0.00820651 -0.0153315 0)
(-0.00426167 -0.0155062 0)
(-0.00104298 -0.0103965 0)
(-0.000707872 0.0095181 0)
(-0.00304441 0.0146651 0)
(-0.00610441 0.015066 0)
(-0.00889391 0.0143298 0)
(-0.0115184 0.0131901 0)
(-0.0139153 0.0117661 0)
(-0.0160444 0.0100892 0)
(-0.0178756 0.00817815 0)
(-0.0193794 0.00604577 0)
(-0.0205244 0.00370031 0)
(-0.0212733 0.0011475 0)
(-0.0215797 -0.00160546 0)
(-0.0213795 -0.00454655 0)
(-0.0205936 -0.00764237 0)
(-0.0191328 -0.0108284 0)
(-0.0169041 -0.0139884 0)
(-0.0138399 -0.0169187 0)
(-0.00998752 -0.0192022 0)
(-0.0052576 -0.0195907 0)
(-0.00130693 -0.0132377 0)
(-0.000794644 0.011445 0)
(-0.00342388 0.0176253 0)
(-0.00686443 0.0180921 0)
(-0.00998717 0.0172038 0)
(-0.0129198 0.0158451 0)
(-0.0155984 0.0141619 0)
(-0.0179869 0.0121944 0)
(-0.0200614 0.00996468 0)
(-0.021799 0.00748533 0)
(-0.0231737 0.0047595 0)
(-0.0241506 0.00178303 0)
(-0.0246819 -0.00145175 0)
(-0.0246909 -0.00495328 0)
(-0.0240704 -0.0087093 0)
(-0.0226858 -0.0126727 0)
(-0.0203742 -0.0167274 0)
(-0.0169785 -0.0206279 0)
(-0.0124694 -0.0238133 0)
(-0.00670677 -0.024594 0)
(-0.00171376 -0.0168128 0)
(-0.000900811 0.0136207 0)
(-0.00388426 0.0209676 0)
(-0.00777907 0.0214956 0)
(-0.0112898 0.020425 0)
(-0.0145738 0.0188154 0)
(-0.0175673 0.0168452 0)
(-0.0202421 0.0145659 0)
(-0.0225851 0.0120049 0)
(-0.024585 0.00917431 0)
(-0.026227 0.00607049 0)
(-0.0274848 0.00267532 0)
(-0.0283162 -0.00104094 0)
(-0.0286372 -0.0051215 0)
(-0.0283136 -0.0095936 0)
(-0.0271562 -0.0144557 0)
(-0.0249047 -0.0196233 0)
(-0.0212556 -0.0248315 0)
(-0.016002 -0.0293554 0)
(-0.00891067 -0.0308511 0)
(-0.00238808 -0.0214951 0)
(-0.00103312 0.0160996 0)
(-0.00444716 0.0247685 0)
(-0.00888237 0.0253419 0)
(-0.012839 0.0240435 0)
(-0.0165147 0.022138 0)
(-0.0198494 0.0198434 0)
(-0.0228279 0.0172261 0)
(-0.0254536 0.0143215 0)
(-0.027734 0.011142 0)
(-0.0296732 0.00767662 0)
(-0.0312625 0.00388902 0)
(-0.0324791 -0.000283071 0)
(-0.033244 -0.00491691 0)
(-0.0334054 -0.0101213 0)
(-0.0327229 -0.0159811 0)
(-0.0308133 -0.0225034 0)
(-0.0271565 -0.0294688 0)
(-0.0211753 -0.0360092 0)
(-0.0124736 -0.0388212 0)
(-0.00361227 -0.0279496 0)
(-0.00120437 0.0189545 0)
(-0.00514841 0.0291213 0)
(-0.0102262 0.0297042 0)
(-0.0146888 0.0281092 0)
(-0.0187906 0.0258437 0)
(-0.022481 0.0231732 0)
(-0.0257649 0.0201843 0)
(-0.0286701 0.0169229 0)
(-0.0312308 0.0134048 0)
(-0.0334809 0.00961276 0)
(-0.0354454 0.00549237 0)
(-0.0371228 0.000946654 0)
(-0.0384766 -0.00415761 0)
(-0.0393797 -0.0100336 0)
(-0.03955 -0.0169134 0)
(-0.038485 -0.0250005 0)
(-0.0353879 -0.0342709 0)
(-0.0290077 -0.0438309 0)
(-0.0186702 -0.0490665 0)
(-0.00605682 -0.0374771 0)
(-0.00144106 0.022293 0)
(-0.00605026 0.0341507 0)
(-0.0118905 0.0346666 0)
(-0.0169183 0.0326694 0)
(-0.0214687 0.0299526 0)
(-0.0255109 0.0268359 0)
(-0.0290794 0.0234299 0)
(-0.0322343 0.0197955 0)
(-0.0350454 0.0159551 0)
(-0.0375869 0.0118901 0)
(-0.03993 0.00753344 0)
(-0.0421306 0.00275718 0)
(-0.0442267 -0.00265032 0)
(-0.0461657 -0.00897999 0)
(-0.0477109 -0.0167096 0)
(-0.0483175 -0.0263991 0)
(-0.046918 -0.038503 0)
(-0.0412267 -0.0524356 0)
(-0.0301964 -0.0620434 0)
(-0.0113788 -0.0529475 0)
(-0.00179632 0.0261915 0)
(-0.00727127 0.039969 0)
(-0.0140069 0.0403098 0)
(-0.0196447 0.0377665 0)
(-0.024643 0.0344711 0)
(-0.0290061 0.0308093 0)
(-0.0328067 0.0269239 0)
(-0.0361461 0.0228923 0)
(-0.039137 0.0187475 0)
(-0.0419032 0.0144775 0)
(-0.0445789 0.0100187 0)
(-0.0473077 0.00524162 0)
(-0.0502156 -9.4626e-05 0)
(-0.0534446 -0.00643784 0)
(-0.0570049 -0.0145293 0)
(-0.0605201 -0.0254075 0)
(-0.0628638 -0.0404848 0)
(-0.060458 -0.0603785 0)
(-0.052061 -0.0775608 0)
(-0.0230557 -0.0795776 0)
(-0.00229338 0.0314556 0)
(-0.00884471 0.0468031 0)
(-0.0167092 0.0466155 0)
(-0.0230175 0.0432364 0)
(-0.0284449 0.0392428 0)
(-0.0330606 0.0349779 0)
(-0.0369963 0.0305751 0)
(-0.0404079 0.0261248 0)
(-0.0434538 0.0216849 0)
(-0.0463041 0.0172666 0)
(-0.0491472 0.0128234 0)
(-0.052216 0.00822219 0)
(-0.055865 0.00321792 0)
(-0.0605455 -0.00266942 0)
(-0.0666469 -0.0102103 0)
(-0.0745128 -0.0210097 0)
(-0.0836994 -0.0375902 0)
(-0.0887346 -0.0640348 0)
(-0.08788 -0.0937505 0)
(-0.0414123 -0.127372 0)
(-0.00402536 0.0359798 0)
(-0.0124418 0.0557627 0)
(-0.0205938 0.0547826 0)
(-0.0273086 0.050525 0)
(-0.0329226 0.0453217 0)
(-0.0376697 0.039907 0)
(-0.0416338 0.0345812 0)
(-0.0449796 0.0294866 0)
(-0.0478993 0.0246813 0)
(-0.0506225 0.0201766 0)
(-0.0534281 0.0159823 0)
(-0.0566545 0.0120649 0)
(-0.0607647 0.00835962 0)
(-0.0664065 0.00460376 0)
(-0.0746677 4.65784e-05 0)
(-0.0868674 -0.00748917 0)
(-0.104424 -0.0225927 0)
(-0.118134 -0.0591302 0)
(-0.127228 -0.115747 0)
(-0.0489236 -0.213972 0)
(-0.00253702 0.0505802 0)
(-0.0121359 0.0608179 0)
(-0.0250535 0.0586109 0)
(-0.0326053 0.052628 0)
(-0.0389443 0.0471814 0)
(-0.0435581 0.0417842 0)
(-0.0469444 0.036531 0)
(-0.0495236 0.0314731 0)
(-0.0516133 0.0266965 0)
(-0.0534539 0.0222613 0)
(-0.0552902 0.0182947 0)
(-0.057419 0.01485 0)
(-0.0603778 0.0121662 0)
(-0.0650786 0.0102583 0)
(-0.0731947 0.00902349 0)
(-0.0866149 0.00561758 0)
(-0.111142 -0.00609188 0)
(-0.124347 -0.0564351 0)
(-0.139517 -0.157334 0)
(-0.0219506 -0.324806 0)
(-0.011251 0.0437193 0)
(-0.0288651 0.0853586 0)
(-0.0315332 0.0787306 0)
(-0.0400199 0.0707051 0)
(-0.0435578 0.061161 0)
(-0.0455968 0.0519517 0)
(-0.0462484 0.0436443 0)
(-0.046146 0.0364242 0)
(-0.0456542 0.0302751 0)
(-0.0450078 0.0250788 0)
(-0.0445632 0.0210029 0)
(-0.044405 0.018089 0)
(-0.0450955 0.0169949 0)
(-0.0464681 0.018381 0)
(-0.0503901 0.0233661 0)
(-0.0527962 0.0275332 0)
(-0.0675599 0.0245172 0)
(-0.0546874 -0.043937 0)
(-0.0819456 -0.196153 0)
(0.0288305 -0.397425 0)
(-0.0733028 0.107167 0)
(-0.056899 0.0678155 0)
(-0.0567555 0.0632718 0)
(-0.0382495 0.0542024 0)
(-0.0224643 0.0450986 0)
(-0.00663816 0.0376488 0)
(0.00773579 0.031618 0)
(0.0205435 0.0264998 0)
(0.0314211 0.0222181 0)
(0.0410168 0.0184289 0)
(0.0486848 0.0157778 0)
(0.0562197 0.0134274 0)
(0.0618781 0.0130561 0)
(0.0706206 0.0126929 0)
(0.0749512 0.015008 0)
(0.0998999 0.012409 0)
(0.0914013 -0.000771577 0)
(0.14563 -0.0610166 0)
(0.0790771 -0.234914 0)
(0.103571 -0.406516 0)
(0.123057 0.142033 0)
(0.160619 0.088584 0)
(0.241699 0.0655277 0)
(0.29798 0.0497319 0)
(0.341397 0.0383471 0)
(0.376646 0.0296543 0)
(0.405113 0.023067 0)
(0.429034 0.0179067 0)
(0.446967 0.0141283 0)
(0.464443 0.0110276 0)
(0.473484 0.00875381 0)
(0.490217 0.00732579 0)
(0.489695 0.00511453 0)
(0.512306 0.00608557 0)
(0.499364 0.00170929 0)
(0.53229 0.00407895 0)
(0.497671 -0.00600234 0)
(0.520802 -0.025122 0)
(0.391462 -0.0609589 0)
(0.268326 -0.146299 0)
)
;

boundaryField
{
    movingWall
    {
        type            fixedValue;
        value           uniform (1 0 0);
    }
    fixedWalls
    {
        type            noSlip;
    }
    frontAndBack
    {
        type            empty;
    }
}


// ************************************************************************* //
