/*--------------------------------*- C++ -*----------------------------------*\
  =========                 |
  \\      /  F ield         | OpenFOAM: The Open Source CFD Toolbox
   \\    /   O peration     | Website:  https://openfoam.org
    \\  /    A nd           | Version:  10
     \\/     M anipulation  |
\*---------------------------------------------------------------------------*/
FoamFile
{
    format      ascii;
    class       volScalarField;
    location    "7.875";
    object      p;
}
// * * * * * * * * * * * * * * * * * * * * * * * * * * * * * * * * * * * * * //

dimensions      [0 2 -2 0 0 0 0];

internalField   nonuniform List<scalar> 
8000
(
3.27896e-06
2.58207e-07
5.31447e-05
0.000148517
0.00029304
0.000489028
0.000739046
0.00104562
0.0014104
0.00183324
0.00231111
0.00283657
0.0033963
0.00396972
0.00452846
0.00503772
0.00545948
0.00575923
0.00593277
0.00592974
6.38085e-06
2.64971e-06
5.78727e-05
0.000153205
0.000296194
0.000489425
0.00073576
0.00103795
0.00139788
0.00181576
0.00228904
0.00281092
0.00336848
0.00394134
0.00450174
0.00501496
0.00544109
0.00574393
0.005921
0.00590732
-6.60346e-05
-7.376e-05
-2.06402e-05
7.08086e-05
0.000208687
0.000395735
0.000635277
0.000930778
0.00128512
0.0016998
0.0021738
0.00270194
0.00327326
0.00386882
0.00445963
0.00500686
0.00546483
0.00578905
0.00597661
0.00594544
-0.000200703
-0.000211332
-0.000161677
-7.63305e-05
5.34426e-05
0.000230682
0.000459397
0.000744102
0.0010892
0.00149823
0.00197273
0.00251051
0.00310326
0.00373364
0.0043723
0.00497577
0.00548971
0.00585405
0.00606333
0.00600595
-0.000404398
-0.00041793
-0.000373562
-0.000296951
-0.000178742
-1.55341e-05
0.000197476
0.000466061
0.000796495
0.00119502
0.00166674
0.00221371
0.00283218
0.00350819
0.00421326
0.00490042
0.00550112
0.00593069
0.00617737
0.00607929
-0.00067729
-0.000694048
-0.00065685
-0.000591914
-0.000489398
-0.000345626
-0.000155084
8.92208e-05
0.000395524
0.000773075
0.00123138
0.00177848
0.00241772
0.00314282
0.00392878
0.00472304
0.00544766
0.00598051
0.00629287
0.00613216
-0.00101768
-0.00103819
-0.00101012
-0.000960147
-0.000878195
-0.000760626
-0.000601594
-0.000393292
-0.000125917
0.000212536
0.000636068
0.00115967
0.00179633
0.00255115
0.00341212
0.00433621
0.00522746
0.00592083
0.0063524
0.00611167
-0.00142262
-0.00144754
-0.00143048
-0.00139891
-0.00134288
-0.00125935
-0.00114289
-0.000985881
-0.000778083
-0.000505972
-0.000152254
0.000304386
0.000888206
0.00162177
0.00251506
0.00354674
0.00462935
0.00556786
0.00622356
0.00594249
-0.00188814
-0.00191803
-0.00191345
-0.00190331
-0.00187836
-0.00183696
-0.00177524
-0.00168726
-0.00156455
-0.00139509
-0.00116195
-0.000841786
-0.000403904
0.000190278
0.000982851
0.00200285
0.00323345
0.00449934
0.00555783
0.00548392
-0.00240958
-0.00244473
-0.00245301
-0.00246602
-0.00247594
-0.00248356
-0.00248806
-0.0024872
-0.0024772
-0.00245201
-0.00240224
-0.00231347
-0.00216336
-0.0019167
-0.00151841
-0.000878313
0.00016523
0.00174825
0.00364849
0.00450015
-0.00298245
-0.00302256
-0.00304202
-0.00307737
-0.00312289
-0.00318319
-0.00326197
-0.00336294
-0.0034906
-0.00365052
-0.00384999
-0.00409834
-0.00440793
-0.00478654
-0.00520952
-0.0055298
-0.00521052
-0.00340794
-5.77212e-05
0.00248851
-0.0036041
-0.00364753
-0.00367293
-0.00372556
-0.00380234
-0.00391323
-0.00406752
-0.00427658
-0.00455611
-0.00492849
-0.00542717
-0.00610189
-0.00702817
-0.00829105
-0.00989794
-0.0115273
-0.0119507
-0.00917568
-0.00342313
0.000326997
-0.00427734
-0.00432038
-0.00434156
-0.00440056
-0.00449719
-0.00464833
-0.0048694
-0.00517965
-0.00560708
-0.00619243
-0.00699925
-0.00812063
-0.00969291
-0.0118278
-0.0145019
-0.0168816
-0.0171808
-0.0122345
-0.00602561
-0.0010208
-0.00501161
-0.00504177
-0.00503727
-0.00508126
-0.00517822
-0.00535146
-0.00561986
-0.00600918
-0.00655713
-0.00731831
-0.00837715
-0.00986493
-0.011951
-0.0146893
-0.0181146
-0.0209214
-0.0218043
-0.0171199
-0.0113157
-0.00292118
-0.00583875
-0.00585144
-0.00580049
-0.00580731
-0.00587324
-0.00603214
-0.00630875
-0.00673306
-0.00734604
-0.00821554
-0.00944021
-0.011149
-0.0135504
-0.0167021
-0.0205775
-0.0242053
-0.0276934
-0.0244859
-0.0187038
-0.00556095
-0.00693746
-0.00672158
-0.00653193
-0.00640775
-0.00640387
-0.00653478
-0.00681267
-0.00725772
-0.00789706
-0.0088119
-0.0100976
-0.0118691
-0.0143525
-0.0175877
-0.0217393
-0.0257704
-0.0309501
-0.0280738
-0.0220009
-0.00446089
-0.00783747
-0.00793229
-0.0075933
-0.00743551
-0.00729703
-0.00729113
-0.00744235
-0.00778057
-0.00834818
-0.00918978
-0.0104157
-0.0121065
-0.0144721
-0.0174557
-0.0213578
-0.0248672
-0.029134
-0.0250077
-0.0183007
0.00581599
-0.011737
-0.00889341
-0.00821173
-0.0074597
-0.00717029
-0.0071338
-0.00732444
-0.00770017
-0.00829662
-0.00910866
-0.0102914
-0.0118507
-0.013989
-0.0164895
-0.019639
-0.0216985
-0.024163
-0.0171419
-0.00804478
0.0295429
-0.0112997
-0.0121914
-0.0106662
-0.0101082
-0.00931219
-0.00879688
-0.0085441
-0.00855514
-0.00887406
-0.00947573
-0.0104882
-0.0118655
-0.0138951
-0.0161786
-0.0192216
-0.0205078
-0.0209663
-0.0088601
0.00938746
0.073222
-0.0360187
-0.0105874
-0.0088597
-0.00732533
-0.00651131
-0.00634396
-0.00656632
-0.00695047
-0.00759036
-0.00839276
-0.00962478
-0.011045
-0.0130477
-0.0147693
-0.0164257
-0.0143071
-0.00738481
0.0198481
0.0674206
0.174091
9.80664e-06
-5.81319e-06
4.44803e-05
0.000138485
0.000282966
0.000479526
0.000730594
0.00103877
0.00140589
0.00183208
0.00231461
0.00284634
0.00341416
0.00399739
0.00456712
0.00508688
0.00551601
0.00581704
0.00598653
0.00596169
2.3864e-05
8.65001e-06
6.36656e-05
0.000158612
0.000301674
0.000495009
0.000741426
0.00104375
0.00140399
0.00182255
0.00229715
0.00282135
0.00338249
0.00396034
0.00452771
0.00504774
0.0054787
0.00578159
0.00595593
0.00591986
-4.40582e-05
-6.55041e-05
-1.23701e-05
7.87227e-05
0.000216675
0.00040377
0.000643257
0.000938675
0.00129304
0.00170809
0.00218314
0.00271347
0.00328856
0.00389007
0.00448877
0.0050444
0.00550855
0.00583285
0.00601695
0.00595743
-0.000175307
-0.00020098
-0.000151125
-6.60661e-05
6.38339e-05
0.00024114
0.000469793
0.000754386
0.00109945
0.00150882
0.00198445
0.00252474
0.00312189
0.00375894
0.00440829
0.00502384
0.00554675
0.00591163
0.00611605
0.00602225
-0.000377178
-0.000406657
-0.000362023
-0.000285639
-0.000167175
-3.71885e-06
0.000209476
0.00047828
0.000809127
0.00120857
0.00168225
0.00223306
0.00285791
0.00354187
0.00426441
0.00496907
0.00558345
0.00601501
0.00625559
0.0061068
-0.000649111
-0.000682559
-0.000645074
-0.00058028
-0.000477316
-0.000332996
-0.000141841
0.000103269
0.000410776
0.000790305
0.00125204
0.00180519
0.00245485
0.0031974
0.00400067
0.00482423
0.0055739
0.00611527
0.00642285
0.00618358
-0.000988894
-0.00102687
-0.000998511
-0.000948611
-0.000866018
-0.00074757
-0.000587418
-0.000377587
-0.000108004
0.000233811
0.000662709
0.00119518
0.00184668
0.00262443
0.00351401
0.00448493
0.00542638
0.00615199
0.00659215
0.00622103
-0.00139342
-0.0014367
-0.00141943
-0.00138793
-0.00133114
-0.00124645
-0.0011284
-0.000969126
-0.000758036
-0.00048104
-0.000119812
0.000348851
0.000952595
0.0017191
0.00266389
0.00375847
0.00493911
0.00597687
0.00669914
0.00620472
-0.00185862
-0.00190802
-0.00190341
-0.00189345
-0.00186776
-0.00182508
-0.00176145
-0.00167061
-0.00154368
-0.00136798
-0.00112549
-0.000790979
-0.000330186
0.000302044
0.00115667
0.00227378
0.00365676
0.00521685
0.00656476
0.00619701
-0.00237971
-0.00243593
-0.00244446
-0.00245795
-0.00246735
-0.00247381
-0.00247632
-0.00247228
-0.00245748
-0.00242532
-0.00236571
-0.00226347
-0.00209571
-0.0018277
-0.00140265
-0.000694797
0.000635376
0.00293818
0.00552475
0.00618227
-0.00295192
-0.00301536
-0.00303551
-0.00307186
-0.00311733
-0.00317685
-0.00325388
-0.00335177
-0.00347466
-0.00362802
-0.0038198
-0.00406223
-0.0043773
-0.00480155
-0.00534886
-0.00583635
-0.005252
-0.00226856
0.00207519
0.00497104
-0.00357187
-0.00364185
-0.00366829
-0.00372255
-0.0038001
-0.00391094
-0.00406408
-0.00427052
-0.00454578
-0.00491307
-0.00540922
-0.00609356
-0.0070712
-0.00851477
-0.0105373
-0.0128471
-0.0136755
-0.0100718
-0.0039788
0.00187771
-0.00424178
-0.00431703
-0.00434039
-0.00440225
-0.00450055
-0.00465205
-0.00487213
-0.00518002
-0.00560356
-0.00618564
-0.0069962
-0.00814634
-0.00982256
-0.0123133
-0.01575
-0.0196008
-0.0218575
-0.0177992
-0.0112681
-0.00275881
-0.00496545
-0.00503396
-0.00503041
-0.00507805
-0.005179
-0.00535501
-0.00562426
-0.0060119
-0.00655576
-0.00731329
-0.00837966
-0.00989737
-0.012117
-0.0153465
-0.0198067
-0.0247429
-0.0290053
-0.0256269
-0.0200814
-0.00870302
-0.00577561
-0.00584823
-0.00580004
-0.00581526
-0.00588539
-0.00604588
-0.00632099
-0.00674104
-0.00734863
-0.0082073
-0.00942709
-0.0111417
-0.0136705
-0.0172403
-0.0223477
-0.0280745
-0.0349661
-0.032831
-0.0286813
-0.0138053
-0.00681003
-0.0066604
-0.00648113
-0.00636957
-0.00638076
-0.00652274
-0.00680539
-0.00724711
-0.00788572
-0.00877757
-0.0100502
-0.0117688
-0.014342
-0.0178663
-0.0229555
-0.0284968
-0.0359005
-0.0336798
-0.0313525
-0.0119704
-0.00753421
-0.00785409
-0.00752182
-0.00741867
-0.00729554
-0.00729878
-0.00744885
-0.00777815
-0.0083295
-0.00912674
-0.0103065
-0.0119359
-0.014308
-0.0174146
-0.0218587
-0.0262616
-0.0315897
-0.0289003
-0.0264552
0.002008
-0.0112511
-0.00858003
-0.00793438
-0.00721978
-0.00701231
-0.00703805
-0.0072647
-0.00765572
-0.00826305
-0.00897068
-0.0101191
-0.0116066
-0.0137113
-0.016277
-0.0197885
-0.0225644
-0.0255506
-0.0207408
-0.0130594
0.0305573
-0.00865265
-0.01124
-0.0100862
-0.00989
-0.00926379
-0.008847
-0.0086315
-0.00863461
-0.00891569
-0.00943637
-0.0103588
-0.0116274
-0.0136124
-0.0159367
-0.0193835
-0.0215583
-0.0228323
-0.0117298
0.00946588
0.0814683
-0.0337981
-0.0087265
-0.00725541
-0.00628171
-0.00582617
-0.00582786
-0.00616567
-0.00660353
-0.00727719
-0.00804868
-0.00924888
-0.0106143
-0.0126041
-0.0144597
-0.0162972
-0.0146691
-0.00751752
0.0217371
0.0811872
0.204715
2.50665e-05
3.54397e-06
5.27058e-05
0.000146281
0.000291373
0.000489326
0.000742618
0.00105409
0.0014259
0.00185853
0.00234964
0.00289241
0.00347377
0.0040727
0.00465901
0.00519416
0.00563427
0.00593818
0.00610333
0.00606172
4.69538e-05
2.51641e-05
8.00884e-05
0.00017484
0.000318331
0.000512569
0.000760482
0.00106514
0.00142888
0.00185248
0.00233409
0.00286766
0.00344053
0.00403295
0.00461589
0.00515069
0.00559228
0.00589808
0.00606896
0.0060159
-1.58534e-05
-4.52609e-05
8.00124e-06
9.88748e-05
0.000237153
0.000424974
0.000665758
0.000963344
0.00132114
0.0017414
0.002224
0.0027648
0.00335386
0.00397281
0.00459087
0.00516558
0.0056438
0.00597203
0.00615125
0.00606813
-0.000142405
-0.000176967
-0.000126809
-4.19667e-05
8.82421e-05
0.000266247
0.000496208
0.000783089
0.00113192
0.00154719
0.00203169
0.00258469
0.00319914
0.00385911
0.00453462
0.00517732
0.00572128
0.00609214
0.00628889
0.0061601
-0.000340598
-0.000379669
-0.000334611
-0.000258395
-0.000139519
2.48168e-05
0.000239639
0.000511273
0.000846782
0.00125359
0.00173854
0.00230593
0.00295429
0.00367103
0.00442938
0.00517439
0.0058222
0.00626488
0.00649355
0.00628645
-0.000609398
-0.000653054
-0.000615032
-0.000550311
-0.000446749
-0.000301238
-0.000107944
0.000140815
0.000454272
0.000843191
0.00131936
0.00189409
0.00257454
0.00335649
0.00421902
0.00510604
0.00591255
0.00647756
0.00676716
0.00642193
-0.000946157
-0.00099497
-0.000965974
-0.000916062
-0.000832702
-0.000712761
-0.00054995
-0.000335612
-5.87e-05
0.000294721
0.000741669
0.00130183
0.00199454
0.00283109
0.00380358
0.00487163
0.00591213
0.00669314
0.00710813
0.00653846
-0.00134749
-0.00140233
-0.00138437
-0.00135286
-0.00129526
-0.00120895
-0.00108793
-0.000923539
-0.000704051
-0.000413631
-3.12467e-05
0.000470509
0.00112548
0.00196791
0.00301381
0.00426558
0.00561808
0.00679039
0.00747036
0.00663455
-0.00180909
-0.0018709
-0.00186562
-0.00185585
-0.00182956
-0.00178544
-0.00171895
-0.00162298
-0.00148745
-0.00129784
-0.00103325
-0.000663903
-0.000148326
0.000568308
0.00154896
0.00283773
0.00449425
0.00633122
0.00756795
0.00677597
-0.00232584
-0.00239546
-0.00240348
-0.00241758
-0.00242694
-0.00243263
-0.00243302
-0.00242471
-0.00240247
-0.00235824
-0.00227995
-0.00214986
-0.00194294
-0.00162497
-0.00113895
-0.000326808
0.00120804
0.00389603
0.00641976
0.00689248
-0.00289244
-0.00297046
-0.00299045
-0.00302814
-0.00307458
-0.00313453
-0.00321091
-0.00330648
-0.00342483
-0.00357114
-0.00375387
-0.00398901
-0.00431407
-0.00480933
-0.00553529
-0.006252
-0.00568916
-0.00215748
0.00244102
0.00554223
-0.00350438
-0.00359021
-0.00361681
-0.00367345
-0.0037535
-0.00386666
-0.00402138
-0.00422838
-0.00450347
-0.00487153
-0.00537466
-0.00608825
-0.0071593
-0.00886319
-0.0114013
-0.0143784
-0.0154558
-0.0112597
-0.00490979
0.0013109
-0.00416241
-0.00425592
-0.00428036
-0.00434617
-0.00444885
-0.00460473
-0.00482874
-0.00514025
-0.00556813
-0.00615896
-0.00699228
-0.00820667
-0.010055
-0.012962
-0.0171522
-0.0219777
-0.0250792
-0.0211623
-0.0145984
-0.00528914
-0.004865
-0.00495392
-0.00495164
-0.00500502
-0.00511336
-0.00529705
-0.00557353
-0.00596781
-0.00651896
-0.00728871
-0.0083828
-0.00997981
-0.0123938
-0.0160801
-0.0213633
-0.0273013
-0.032655
-0.0299518
-0.024061
-0.0123158
-0.00564475
-0.00574466
-0.00569794
-0.00572284
-0.00580324
-0.00597407
-0.00625825
-0.00668601
-0.00730046
-0.00816777
-0.00940465
-0.011187
-0.0138681
-0.0177898
-0.0235422
-0.0297849
-0.036757
-0.034676
-0.0298505
-0.0162476
-0.00661988
-0.00650293
-0.00632636
-0.00622713
-0.00625434
-0.00641254
-0.00670906
-0.00716079
-0.00780474
-0.00870003
-0.0099672
-0.0117327
-0.0143786
-0.0180497
-0.0234828
-0.0289903
-0.0350947
-0.0328653
-0.0295681
-0.0125335
-0.00721364
-0.0075964
-0.00727823
-0.00720969
-0.00711199
-0.0071387
-0.00730624
-0.00764679
-0.00819768
-0.00899802
-0.0101669
-0.0117644
-0.0141533
-0.0173153
-0.0218313
-0.025985
-0.0301242
-0.0270182
-0.0227815
0.0023456
-0.0109058
-0.00826365
-0.00757
-0.00686157
-0.00669144
-0.00676046
-0.00702116
-0.00743249
-0.00802148
-0.00878516
-0.00987668
-0.0113248
-0.0133983
-0.016003
-0.0194864
-0.0221266
-0.0240405
-0.0188795
-0.00895067
0.0318185
-0.00757581
-0.0104321
-0.00939344
-0.00931511
-0.00877156
-0.00842922
-0.00826403
-0.00830492
-0.0085964
-0.00911973
-0.0099999
-0.0112354
-0.0131738
-0.0155723
-0.0190768
-0.0212918
-0.022101
-0.0103178
0.0130793
0.0848674
-0.0330838
-0.00789176
-0.00640614
-0.00556485
-0.00522952
-0.00530288
-0.00568037
-0.00615094
-0.00682654
-0.00760014
-0.00875324
-0.0101048
-0.0120505
-0.0139776
-0.0158265
-0.0141567
-0.00611176
0.0244908
0.0876583
0.212837
4.2656e-05
1.774e-05
6.62906e-05
0.000159813
0.000305899
0.000505797
0.000762075
0.00107783
0.00145556
0.00189617
0.00239769
0.00295358
0.00355077
0.00416776
0.00477292
0.00532537
0.00577805
0.00608674
0.00624977
0.00619598
6.90551e-05
4.35869e-05
9.85123e-05
0.000193408
0.000337801
0.000533654
0.000784055
0.00109236
0.00146124
0.00189193
0.00238301
0.00292875
0.00351636
0.00412673
0.0047285
0.00528091
0.00573541
0.00604608
0.00621505
0.0061496
9.95127e-06
-2.38659e-05
2.95398e-05
0.000120562
0.000259709
0.000449078
0.000692294
0.000993529
0.00135663
0.00178439
0.00227729
0.00283172
0.00343836
0.00407827
0.00471932
0.00531615
0.00581094
0.00614507
0.00632087
0.00621976
-0.000112876
-0.000152365
-0.000101935
-1.69133e-05
0.0001142
0.000293806
0.000526323
0.000817123
0.00117178
0.00159551
0.00209196
0.00266118
0.00329648
0.0039839
0.00468996
0.00536316
0.00593061
0.00630915
0.00649938
0.00634227
-0.000307885
-0.000352289
-0.000306866
-0.000230411
-0.000110508
5.5639e-05
0.000273379
0.000549542
0.00089189
0.0013088
0.00180836
0.00239628
0.00307263
0.00382478
0.00462496
0.00541375
0.00609696
0.00655129
0.00676721
0.00651182
-0.000573807
-0.000623168
-0.000584698
-0.00051966
-0.000414901
-0.00026729
-7.05945e-05
0.000183484
0.000505051
0.000906098
0.00140008
0.00200041
0.00271638
0.00354527
0.00446676
0.0054187
0.00628084
0.00686549
0.00712983
0.00669984
-0.000907731
-0.000962642
-0.000933142
-0.000882866
-0.000798185
-0.000675909
-0.000509277
-0.000288909
-2.71083e-06
0.000364767
0.000832697
0.00142375
0.00216066
0.00305592
0.00411119
0.00527358
0.00640175
0.00721893
0.00758105
0.00687125
-0.00130606
-0.00136745
-0.00134899
-0.00131718
-0.00125828
-0.00116961
-0.00104463
-0.0008739
-0.000644535
-0.000339005
6.62588e-05
0.000602506
0.00130862
0.0022245
0.00337026
0.00474649
0.00623116
0.00747303
0.00804242
0.00702289
-0.00176422
-0.00183315
-0.00182747
-0.00181763
-0.00179032
-0.00174416
-0.00167407
-0.00157219
-0.00142735
-0.00122344
-0.000937191
-0.000535386
2.84799e-05
0.000813924
0.00188391
0.0033025
0.00511694
0.00708581
0.00814872
0.00723436
-0.00227677
-0.00235417
-0.00236203
-0.00237652
-0.00238548
-0.00238991
-0.00238771
-0.0023749
-0.00234551
-0.0022906
-0.00219717
-0.00204691
-0.0018167
-0.00148082
-0.00099239
-0.000180912
0.00149957
0.00446151
0.00686073
0.0074344
-0.00283781
-0.00292445
-0.00294468
-0.0029835
-0.00303052
-0.00309048
-0.00316596
-0.00325946
-0.00337457
-0.00351702
-0.00369731
-0.00393744
-0.00429271
-0.00488583
-0.00579908
-0.00666469
-0.00611055
-0.00234911
0.00225968
0.00588286
-0.0034418
-0.00353721
-0.00356452
-0.00362327
-0.00370527
-0.00382016
-0.00397617
-0.00418422
-0.00446101
-0.00483407
-0.00535218
-0.00610651
-0.0072802
-0.00922425
-0.0121661
-0.0156178
-0.0170177
-0.0129688
-0.00656102
0.000654041
-0.00408814
-0.00419285
-0.00421883
-0.00428812
-0.00439435
-0.00455377
-0.00478121
-0.00509657
-0.00553031
-0.0061332
-0.00699439
-0.00827453
-0.0102692
-0.0134916
-0.0182164
-0.0236929
-0.0275805
-0.0243643
-0.0178062
-0.00754603
-0.00477173
-0.00487346
-0.00487329
-0.00493171
-0.00504572
-0.00523521
-0.00551725
-0.00591714
-0.00647544
-0.00725795
-0.00837909
-0.0100369
-0.0125878
-0.0165564
-0.0223517
-0.0287823
-0.0347846
-0.0327647
-0.0271861
-0.0151141
-0.00552432
-0.00564081
-0.005597
-0.00563007
-0.0057184
-0.00589679
-0.00618738
-0.00662033
-0.00723933
-0.0081132
-0.00936312
-0.0111797
-0.013954
-0.0180113
-0.0240883
-0.0303695
-0.0372863
-0.0353671
-0.0314955
-0.0180064
-0.00645105
-0.00635427
-0.00618247
-0.00609425
-0.00613285
-0.00630201
-0.00660737
-0.00706461
-0.00770989
-0.00860351
-0.00986554
-0.0116355
-0.014375
-0.0178869
-0.0234236
-0.0286862
-0.0340575
-0.0318845
-0.0300858
-0.0128411
-0.00696472
-0.00738995
-0.00707581
-0.00703191
-0.00695114
-0.00699257
-0.00716975
-0.00751404
-0.00806079
-0.00885165
-0.00999609
-0.011568
-0.0139345
-0.0170464
-0.0214964
-0.0253955
-0.0290128
-0.0260066
-0.0230562
0.00314844
-0.0105822
-0.00797883
-0.00727753
-0.00658955
-0.00644019
-0.00653229
-0.00681079
-0.00723172
-0.00781664
-0.00857548
-0.00963714
-0.0110418
-0.0130707
-0.0156484
-0.0190791
-0.0216056
-0.0232166
-0.0183401
-0.00922868
0.0335
-0.00699138
-0.0100147
-0.00899569
-0.00898229
-0.00847057
-0.00815696
-0.00800953
-0.00805814
-0.00834484
-0.00885311
-0.00969988
-0.0108971
-0.0128015
-0.0152026
-0.0187416
-0.0210062
-0.0218322
-0.010046
0.0132856
0.0881034
-0.0325186
-0.00731819
-0.00583444
-0.00505724
-0.00478497
-0.00490736
-0.0053179
-0.00580986
-0.00648988
-0.00725729
-0.00838404
-0.00970433
-0.0116216
-0.0135323
-0.0153763
-0.0135898
-0.00533759
0.0259047
0.0897398
0.21869
6.13799e-05
3.52671e-05
8.3932e-05
0.000178021
0.000325527
0.00052777
0.000787518
0.00110816
0.00149257
0.00194203
0.00245494
0.00302499
0.00363907
0.00427498
0.00489974
0.00547019
0.00593627
0.00625107
0.00641367
0.00635107
8.98217e-05
6.28861e-05
0.000118117
0.00021363
0.000359404
0.000557477
0.000811156
0.0011241
0.00149936
0.00193859
0.00244076
0.00300044
0.00360492
0.00423448
0.00485643
0.00542758
0.00589606
0.00621291
0.00638129
0.00630697
3.31316e-05
-2.47306e-06
5.13121e-05
0.000142966
0.000283512
0.00047513
0.0007217
0.00102775
0.00139759
0.00183453
0.0023396
0.00290969
0.00353586
0.0041985
0.00486401
0.00548404
0.00599631
0.00633748
0.00651102
0.00639632
-8.69649e-05
-0.000128475
-7.75848e-05
8.11188e-06
0.0001407
0.000322679
0.000558774
0.000854794
0.00121688
0.00165096
0.00216147
0.00274927
0.00340855
0.00412442
0.00486232
0.00556671
0.00615799
0.00654487
0.00672915
0.00654914
-0.000279355
-0.000325964
-0.000280011
-0.000202815
-8.13014e-05
8.74475e-05
0.000309157
0.000591196
0.000942047
0.00137103
0.00188738
0.00249792
0.00320269
0.0039935
0.00483671
0.00566909
0.0063867
0.00685179
0.00705381
0.00675796
-0.000542719
-0.000594448
-0.000555392
-0.000489544
-0.000383026
-0.000232552
-3.14399e-05
0.000229258
0.000560541
0.000975617
0.00148956
0.00211767
0.00287142
0.00374774
0.00472721
0.005741
0.00665408
0.00725358
0.00748733
0.00698611
-0.000874028
-0.00093148
-0.000901371
-0.000850264
-0.000763743
-0.000638434
-0.000467062
-0.0002395
5.73957e-05
0.00044055
0.000931149
0.00155452
0.00233653
0.00329205
0.00442179
0.00566915
0.00687215
0.00771163
0.00800758
0.00718171
-0.00126952
-0.00133367
-0.00131464
-0.00128208
-0.00122143
-0.00112978
-0.00100008
-0.000822088
-0.000581812
-0.000260151
0.000168674
0.000739039
0.00149329
0.00247272
0.00370551
0.00518767
0.00677505
0.0080545
0.00849287
0.00732592
-0.00172443
-0.00179636
-0.00179026
-0.00177992
-0.00175118
-0.00170247
-0.0016282
-0.0015198
-0.00136516
-0.0011468
-0.000839655
-0.000408187
0.000196641
0.00103458
0.00215784
0.00367399
0.00558825
0.00761912
0.0084912
0.00749033
-0.00223294
-0.00231366
-0.00232135
-0.00233581
-0.00234397
-0.0023467
-0.00234152
-0.00232397
-0.00228758
-0.00222295
-0.00211703
-0.00195258
-0.00171131
-0.00138017
-0.000918765
-0.000181129
0.00149638
0.00454857
0.00686988
0.00759949
-0.00278866
-0.00287899
-0.00289945
-0.00293892
-0.00298606
-0.0030456
-0.0031199
-0.00321143
-0.00332404
-0.00346458
-0.00364665
-0.00390006
-0.00429994
-0.00501463
-0.00616052
-0.00731183
-0.00695655
-0.0031209
0.00167381
0.00578222
-0.00338519
-0.0034847
-0.00351271
-0.00357297
-0.00365627
-0.00377229
-0.00392928
-0.00413855
-0.00441808
-0.00479853
-0.00533602
-0.00613811
-0.00742334
-0.00961817
-0.0130032
-0.0170339
-0.0187999
-0.0148379
-0.00804929
-0.000107589
-0.00402087
-0.00413036
-0.00415769
-0.00422956
-0.00433839
-0.00450048
-0.00473083
-0.00505004
-0.00549047
-0.00610722
-0.00699883
-0.00834627
-0.0104852
-0.0140083
-0.0192474
-0.0253036
-0.02961
-0.0267132
-0.0198666
-0.009065
-0.00468852
-0.00479571
-0.00479751
-0.00485967
-0.00497764
-0.00517125
-0.00545755
-0.00586239
-0.00642795
-0.00722375
-0.00837202
-0.0100881
-0.012761
-0.0169629
-0.0231695
-0.0298648
-0.0358075
-0.0338664
-0.0282328
-0.0163651
-0.0054195
-0.00554279
-0.00550142
-0.00554003
-0.00563369
-0.00581723
-0.00611237
-0.00654937
-0.00717259
-0.00805279
-0.00931462
-0.0111589
-0.0139933
-0.0181696
-0.0244335
-0.030533
-0.0368608
-0.0346549
-0.0309479
-0.0182822
-0.00631118
-0.00622335
-0.00605566
-0.00597523
-0.00602072
-0.00619631
-0.00650673
-0.0069669
-0.00761238
-0.00850318
-0.00975619
-0.0115146
-0.0141824
-0.0178652
-0.0232567
-0.0281828
-0.0326821
-0.0303341
-0.0284642
-0.0123803
-0.00678656
-0.00722784
-0.00691239
-0.00688155
-0.00680968
-0.00685904
-0.0070409
-0.00738588
-0.0079284
-0.00870982
-0.00983673
-0.0113832
-0.0137116
-0.0167998
-0.0211288
-0.0247399
-0.027744
-0.0244819
-0.0213499
0.00401167
-0.0103332
-0.00775822
-0.00706117
-0.00639026
-0.00625009
-0.006352
-0.00663724
-0.00706021
-0.00764057
-0.00838928
-0.00942977
-0.010803
-0.0127968
-0.0153295
-0.0186679
-0.0210227
-0.0222344
-0.0172046
-0.00786748
0.0347105
-0.00672507
-0.00978879
-0.00875749
-0.0087651
-0.00826042
-0.00795541
-0.00781265
-0.00786084
-0.00814084
-0.00863465
-0.00945955
-0.0106269
-0.0125044
-0.0148796
-0.0183641
-0.0205133
-0.021086
-0.00912425
0.0145182
0.089993
-0.0322198
-0.00702108
-0.00553056
-0.00476532
-0.00451373
-0.00465575
-0.0050799
-0.00557817
-0.00625569
-0.0070136
-0.00812037
-0.00941537
-0.0113014
-0.0131753
-0.0149521
-0.0130456
-0.00451024
0.027144
0.0915648
0.221462
7.92817e-05
5.28576e-05
0.00010195
0.000196937
0.00034611
0.000550926
0.000814375
0.00114014
0.00153143
0.00198987
0.00251419
0.00309826
0.00372883
0.0043831
0.00502674
0.00561448
0.00609364
0.00641493
0.00657802
0.00650855
0.000108625
8.12094e-05
0.000136927
0.000233361
0.000380801
0.000581413
0.000838731
0.00115671
0.00153876
0.00198688
0.00250043
0.00307417
0.00369544
0.00434378
0.00498529
0.00557451
0.0060566
0.00637991
0.0065484
0.00646714
5.34769e-05
1.7291e-05
7.16112e-05
0.000164222
0.00030649
0.000500731
0.000751086
0.00106243
0.00143947
0.00188601
0.00240357
0.00298941
0.00363485
0.00431953
0.00500846
0.00565053
0.00617942
0.00652763
0.00669952
0.00657393
-6.46955e-05
-0.000106869
-5.5386e-05
3.13261e-05
0.000165737
0.0003505
0.000590652
0.00089241
0.00126244
0.0017073
0.00223213
0.00283841
0.00352093
0.00426415
0.00503203
0.00576539
0.0063786
0.00677326
0.0069519
0.00675301
-0.000255056
-0.000302393
-0.000255793
-0.000177509
-5.40369e-05
0.000117728
0.000343879
0.000632288
0.000992098
0.00143347
0.00196666
0.0025996
0.00333338
0.00415867
0.00504133
0.00591319
0.00666138
0.00713537
0.00732312
0.00699374
-0.000516312
-0.000568829
-0.000529086
-0.000462089
-0.000353483
-0.000199764
6.18174e-06
0.000273902
0.000615204
0.00104437
0.00157783
0.00223232
0.00301998
0.00394131
0.00497317
0.00604146
0.00699829
0.00760842
0.00780933
0.00725008
-0.000845398
-0.000903707
-0.000872907
-0.000820643
-0.000731983
-0.000603311
-0.000426868
-0.000191854
0.000115813
0.000514334
0.00102659
0.0016801
0.00250332
0.00351282
0.00470702
0.00602678
0.00729211
0.00814562
0.00837062
0.00745076
-0.00123846
-0.00130355
-0.00128389
-0.00125027
-0.00118758
-0.00109268
-0.000958025
-0.000772678
-0.000521696
-0.000184686
0.000265868
0.000866652
0.00166242
0.00269599
0.00400119
0.00557006
0.0072401
0.00854213
0.00884412
0.00755737
-0.00169054
-0.00176352
-0.00175695
-0.0017458
-0.00171535
-0.00166384
-0.00158523
-0.00147038
-0.00130641
-0.00107484
-0.000749364
-0.000293019
0.000344527
0.00122308
0.00239453
0.00396922
0.00595373
0.00802187
0.00870366
0.00763374
-0.00219558
-0.00227748
-0.00228494
-0.00229901
-0.00230605
-0.00230682
-0.00229852
-0.00227638
-0.00223365
-0.00216085
-0.00204547
-0.00187236
-0.00162944
-0.00131917
-0.000917621
-0.000264858
0.00137959
0.00451681
0.00677261
0.00763109
-0.00274675
-0.00283843
-0.00285902
-0.00289867
-0.00294554
-0.00300427
-0.0030772
-0.00316685
-0.00327759
-0.00341772
-0.00360445
-0.00387594
-0.00432729
-0.00517298
-0.00657189
-0.00803347
-0.00786419
-0.00392278
0.00107626
0.0056207
-0.00333703
-0.00343806
-0.00346664
-0.0035278
-0.00361179
-0.00372836
-0.00388591
-0.00409629
-0.00437892
-0.00476779
-0.00532649
-0.00617899
-0.00757807
-0.0100254
-0.0138681
-0.0185076
-0.0205632
-0.0165105
-0.00929133
-0.000763349
-0.0039641
-0.00407537
-0.00410379
-0.00417735
-0.00428787
-0.00445177
-0.0046843
-0.00500692
-0.00545398
-0.00608494
-0.0070076
-0.00842284
-0.0107055
-0.014525
-0.0202773
-0.0269084
-0.0313952
-0.0284478
-0.0213488
-0.0101946
-0.00461955
-0.00472879
-0.0047322
-0.00479691
-0.00491747
-0.0051138
-0.00540314
-0.00581205
-0.00638445
-0.00719363
-0.0083696
-0.0101436
-0.0129387
-0.0173658
-0.0239678
-0.0309693
-0.0365974
-0.0344844
-0.0289067
-0.0171272
-0.00533503
-0.00546091
-0.00542143
-0.00546356
-0.00556052
-0.00574724
-0.00604528
-0.00648516
-0.00711218
-0.00799924
-0.0092762
-0.0111501
-0.0140547
-0.018338
-0.024787
-0.03094
-0.0363168
-0.0340312
-0.0306334
-0.0182649
-0.00620247
-0.00611837
-0.00595404
-0.00587877
-0.00592841
-0.00610759
-0.00642056
-0.0068819
-0.00752705
-0.00841625
-0.0096694
-0.0114251
-0.014094
-0.0178123
-0.0231638
-0.0278817
-0.0317389
-0.0291311
-0.0275664
-0.0117641
-0.00666246
-0.00710933
-0.00679158
-0.00676706
-0.00669916
-0.00675203
-0.00693537
-0.00727906
-0.00781712
-0.00859005
-0.00970526
-0.0112337
-0.0135398
-0.0165965
-0.0208412
-0.0242492
-0.0268121
-0.0233141
-0.0204347
0.00491619
-0.0101539
-0.0075973
-0.00690859
-0.00624987
-0.00611446
-0.00621988
-0.00650632
-0.00692732
-0.00750216
-0.00824031
-0.00926542
-0.0106152
-0.0125825
-0.0150687
-0.0183256
-0.0205376
-0.0214786
-0.0162795
-0.00710133
0.0357851
-0.006593
-0.00966452
-0.0086157
-0.0086298
-0.00812365
-0.00781831
-0.0076735
-0.00771657
-0.00798942
-0.00847013
-0.0092814
-0.010424
-0.0122837
-0.0146195
-0.0180401
-0.0200751
-0.0204597
-0.00830412
0.0154077
0.0914708
-0.0320371
-0.00684845
-0.00535315
-0.00458896
-0.00434487
-0.00449356
-0.00492286
-0.00542014
-0.00609466
-0.00684165
-0.00793754
-0.00920984
-0.0110727
-0.0128971
-0.0145995
-0.012543
-0.00380655
0.0282032
0.0928089
0.223315
9.51413e-05
6.87796e-05
0.000118434
0.000214448
0.000365321
0.000572661
0.00083967
0.00117029
0.00156802
0.00203479
0.00256958
0.00316639
0.00381183
0.00448253
0.00514298
0.0057461
0.00623698
0.00656435
0.00672829
0.0066534
0.000124871
9.7392e-05
0.000153678
0.000251149
0.000400303
0.000603444
0.00086432
0.00118714
0.00157562
0.00203209
0.00255617
0.00314274
0.00377922
0.00444443
0.00510337
0.00570864
0.00620287
0.00653218
0.00670109
0.00661436
7.07211e-05
3.44435e-05
8.93661e-05
0.000183056
0.000327104
0.000523979
0.000778055
0.0010945
0.00147839
0.00193393
0.002463
0.00306319
0.00372594
0.00443023
0.00513985
0.00580123
0.00634467
0.00669919
0.00686985
0.00673562
-4.6116e-05
-8.84e-05
-3.62726e-05
5.15801e-05
0.000187876
0.000375438
0.000619576
0.000926866
0.00130442
0.00175931
0.00229725
0.00292019
0.00362335
0.00439066
0.00518461
0.0059429
0.00657486
0.00697614
0.00714977
0.00693574
-0.000234958
-0.000282418
-0.00023513
-0.000155637
-3.01541e-05
0.000144617
0.000375096
0.000669587
0.00103779
0.00149056
0.00203897
0.00269184
0.00345114
0.00430613
0.00522258
0.00612788
0.0069016
0.00738259
0.00755704
0.00720094
-0.000494562
-0.000547212
-0.000506753
-0.000438493
-0.00032777
-0.000170856
3.97387e-05
0.000314072
0.000664625
0.00110654
0.00165734
0.00233484
0.0031523
0.0041114
0.00518741
0.00630122
0.00729413
0.00791193
0.00808166
0.00747659
-0.000821862
-0.000880321
-0.000848812
-0.000795285
-0.000704478
-0.000572535
-0.000391283
-0.000149358
0.000168091
0.000580285
0.00111143
0.00179074
0.00264815
0.00370312
0.00495073
0.00633073
0.00764786
0.00851131
0.00866913
0.00767449
-0.00121294
-0.00127821
-0.00125791
-0.00122312
-0.0011584
-0.00106036
-0.00092106