/*--------------------------------*- C++ -*----------------------------------*\
  =========                 |
  \\      /  F ield         | OpenFOAM: The Open Source CFD Toolbox
   \\    /   O peration     | Website:  https://openfoam.org
    \\  /    A nd           | Version:  10
     \\/     M anipulation  |
\*---------------------------------------------------------------------------*/
FoamFile
{
    format      ascii;
    class       volVectorField;
    location    "7.225";
    object      U;
}
// * * * * * * * * * * * * * * * * * * * * * * * * * * * * * * * * * * * * * //

dimensions      [0 1 -1 0 0 0 0];

internalField   nonuniform List<vector> 
475
(
(0.974265 0.0161241 0)
(0.975924 0.006313 0)
(0.95018 0.0315202 0)
(0.954805 0.000931751 0)
(0.920078 0.0301105 0)
(0.99858 0.00864063 0)
(1.01397 0.0148905 0)
(1.02537 0.0150119 0)
(1.0437 0.00849896 0)
(1.05573 0.00170752 0)
(1.00004 0.000301572 0)
(1.00958 -0.00303136 0)
(1.02437 -0.00477825 0)
(1.04118 -0.00957585 0)
(1.05634 -0.0146092 0)
(1.00043 -0.0100307 0)
(1.00966 -0.019587 0)
(1.02339 -0.0220209 0)
(1.03488 -0.0234161 0)
(1.04479 -0.0256305 0)
(0.981188 -0.00980613 0)
(0.968526 -0.0189891 0)
(0.954322 -0.021892 0)
(0.93237 -0.0224016 0)
(0.908239 -0.0228056 0)
(0.925758 -0.016963 0)
(0.933028 -0.0361272 0)
(0.937633 -0.0479755 0)
(0.944184 -0.0565371 0)
(0.954366 -0.065252 0)
(0.969011 -0.07657 0)
(0.988679 -0.0926727 0)
(1.01017 -0.112968 0)
(1.03254 -0.137226 0)
(1.05272 -0.164161 0)
(1.06981 -0.19165 0)
(1.08155 -0.218057 0)
(1.08645 -0.239752 0)
(1.08436 -0.25512 0)
(1.07428 -0.261833 0)
(1.0566 -0.259976 0)
(1.03129 -0.250523 0)
(1.0004 -0.235014 0)
(0.969161 -0.213006 0)
(0.939547 -0.184772 0)
(0.911057 -0.152153 0)
(0.885085 -0.116907 0)
(0.860498 -0.0807229 0)
(0.837258 -0.0463421 0)
(0.817526 -0.0155171 0)
(0.802328 0.0110512 0)
(0.79052 0.0326218 0)
(0.781532 0.0495374 0)
(0.775383 0.0624 0)
(0.771933 0.0712464 0)
(0.770097 0.0759649 0)
(0.767988 0.0773519 0)
(0.764271 0.076673 0)
(0.7586 0.0738191 0)
(0.751518 0.0680668 0)
(0.743581 0.0601005 0)
(0.734478 0.0525054 0)
(0.724786 0.0479565 0)
(0.71421 0.0462221 0)
(0.705017 0.047069 0)
(0.695018 0.0456192 0)
(0.687859 0.0449146 0)
(0.67811 0.0375008 0)
(0.673592 0.0351307 0)
(0.664308 0.0235345 0)
(1.06842 -0.00902597 0)
(1.07776 -0.0219589 0)
(1.08242 -0.0334234 0)
(1.08453 -0.0443157 0)
(1.086 -0.0557966 0)
(1.0876 -0.0697799 0)
(1.08964 -0.087514 0)
(1.08999 -0.10919 0)
(1.08873 -0.134301 0)
(1.08265 -0.161078 0)
(1.07263 -0.187592 0)
(1.0555 -0.21112 0)
(1.03248 -0.228365 0)
(1.00228 -0.236443 0)
(0.966149 -0.233485 0)
(0.922787 -0.226109 0)
(0.872033 -0.213901 0)
(0.817966 -0.194887 0)
(0.765833 -0.169197 0)
(0.718166 -0.140039 0)
(0.674962 -0.109348 0)
(0.637832 -0.0781664 0)
(0.605695 -0.0486207 0)
(0.578047 -0.0223454 0)
(0.555295 0.00131788 0)
(0.54008 0.0220361 0)
(0.53194 0.0389986 0)
(0.529263 0.0516109 0)
(0.530688 0.0605672 0)
(0.534585 0.0671909 0)
(0.539391 0.0724501 0)
(0.544129 0.0764215 0)
(0.548929 0.078304 0)
(0.55422 0.0768455 0)
(0.560132 0.0719669 0)
(0.565765 0.0650399 0)
(0.570375 0.0585689 0)
(0.573922 0.0543866 0)
(0.577392 0.0522187 0)
(0.581441 0.0515431 0)
(0.587325 0.0486556 0)
(0.593162 0.0462004 0)
(0.6022 0.0377188 0)
(0.606861 0.0342427 0)
(0.618835 0.0217291 0)
(1.06851 -0.0223524 0)
(1.07636 -0.0330521 0)
(1.08065 -0.044152 0)
(1.08071 -0.0556004 0)
(1.07901 -0.0666637 0)
(1.07386 -0.0796642 0)
(1.06789 -0.0941391 0)
(1.05715 -0.112222 0)
(1.04466 -0.131995 0)
(1.02502 -0.15401 0)
(1.00198 -0.175504 0)
(0.971615 -0.193324 0)
(0.936001 -0.204022 0)
(0.89079 -0.198888 0)
(0.837446 -0.181662 0)
(0.767879 -0.170134 0)
(0.692169 -0.162022 0)
(0.617855 -0.149393 0)
(0.540849 -0.126501 0)
(0.469817 -0.0971962 0)
(0.410741 -0.066478 0)
(0.362854 -0.0372812 0)
(0.325845 -0.0121952 0)
(0.299012 0.00746028 0)
(0.280106 0.0240263 0)
(0.269551 0.037819 0)
(0.267182 0.0483376 0)
(0.271476 0.0558484 0)
(0.280872 0.061078 0)
(0.29421 0.0646509 0)
(0.310708 0.066826 0)
(0.329735 0.0672953 0)
(0.350713 0.0657155 0)
(0.372633 0.0619457 0)
(0.394299 0.0566037 0)
(0.414447 0.0507375 0)
(0.432672 0.0458396 0)
(0.449412 0.0423952 0)
(0.465824 0.040201 0)
(0.482463 0.0381403 0)
(0.500329 0.0348458 0)
(0.516952 0.0308717 0)
(0.535666 0.0240257 0)
(0.546966 0.0198657 0)
(0.56622 0.0109588 0)
(1.04969 -0.0304162 0)
(1.05123 -0.036257 0)
(1.04777 -0.0431391 0)
(1.03944 -0.0499102 0)
(1.02729 -0.0570979 0)
(1.00854 -0.0650543 0)
(0.987202 -0.0742846 0)
(0.955934 -0.0858174 0)
(0.922276 -0.098524 0)
(0.873984 -0.114291 0)
(0.823166 -0.128265 0)
(0.757278 -0.142475 0)
(0.684069 -0.14856 0)
(0.609674 -0.133126 0)
(0.521739 -0.109052 0)
(0.388845 -0.0794225 0)
(0.251672 -0.03986 0)
(0.151608 -0.0128531 0)
(0.0821403 -0.0077871 0)
(0.040308 -0.0083021 0)
(0.0183617 -0.0051422 0)
(0.00774302 0.00239835 0)
(0.00479715 0.0113119 0)
(0.00931856 0.0197488 0)
(0.0208889 0.0265169 0)
(0.0371255 0.0313022 0)
(0.0572328 0.0342149 0)
(0.0804252 0.0357753 0)
(0.105987 0.0365369 0)
(0.133288 0.0368282 0)
(0.161827 0.0368103 0)
(0.191096 0.0361943 0)
(0.220528 0.0347407 0)
(0.249216 0.0323453 0)
(0.276249 0.029259 0)
(0.300975 0.025904 0)
(0.323481 0.0228658 0)
(0.344289 0.020262 0)
(0.364006 0.0180621 0)
(0.38301 0.0156955 0)
(0.400829 0.0130871 0)
(0.416975 0.0100193 0)
(0.430775 0.00692722 0)
(0.440534 0.00446282 0)
(0.450753 0.00166819 0)
(0.878717 -0.0245436 0)
(0.84908 -0.0259162 0)
(0.813601 -0.0287934 0)
(0.776488 -0.0301972 0)
(0.732491 -0.0337984 0)
(0.684614 -0.0353601 0)
(0.630443 -0.0406195 0)
(0.5677 -0.0438569 0)
(0.50045 -0.0514157 0)
(0.414578 -0.0577765 0)
(0.329735 -0.0641242 0)
(0.213107 -0.0797128 0)
(0.0928711 -0.0487952 0)
(0.012322 0.0105442 0)
(-0.0288243 0.0507845 0)
(-0.0414802 0.0671626 0)
(-0.0387838 0.0456331 0)
(-0.0362132 0.00674728 0)
(-0.0445509 -0.0213117 0)
(-0.0642042 -0.0299051 0)
(-0.0845973 -0.0268205 0)
(-0.0979911 -0.0194723 0)
(-0.102663 -0.0120371 0)
(-0.0992969 -0.00498476 0)
(-0.0896035 5.70304e-05 0)
(-0.0751474 0.00330407 0)
(-0.0574829 0.00538184 0)
(-0.0378085 0.0066446 0)
(-0.0169469 0.00733844 0)
(0.0046872 0.00763285 0)
(0.026666 0.00770671 0)
(0.0484902 0.00750536 0)
(0.0697347 0.00700935 0)
(0.0897675 0.00620589 0)
(0.108025 0.00518189 0)
(0.124156 0.00409093 0)
(0.138211 0.00310358 0)
(0.150419 0.00229932 0)
(0.161125 0.00169957 0)
(0.170425 0.00125552 0)
(0.178301 0.000926422 0)
(0.184615 0.000692741 0)
(0.1892 0.000554615 0)
(0.192442 0.000425716 0)
(0.194496 0.000255473 0)
(0.00408758 -0.0279935 0)
(0.00608646 -0.0280549 0)
(-0.00350894 -0.0144604 0)
(-0.03162 0.0108808 0)
(-0.0842997 0.0296031 0)
(-0.145121 0.0346559 0)
(-0.201859 0.0332543 0)
(-0.251084 0.0293174 0)
(-0.288869 0.0238286 0)
(-0.312981 0.0173636 0)
(-0.322148 0.0100158 0)
(-0.317329 0.00171512 0)
(-0.29815 -0.00657013 0)
(-0.2656 -0.0142048 0)
(-0.221547 -0.0203583 0)
(-0.168681 -0.0245215 0)
(-0.110518 -0.0266111 0)
(-0.0495952 -0.0269248 0)
(0.0113661 -0.0257342 0)
(0.0695003 -0.0232848 0)
(0.122077 -0.0196791 0)
(0.166932 -0.0152638 0)
(0.202635 -0.0105059 0)
(0.228527 -0.00582895 0)
(0.24494 -0.00154562 0)
(0.25262 0.00170512 0)
(0.253218 0.00398786 0)
(0.247914 0.00679534 0)
(0.237381 0.0106568 0)
(0.222638 0.0141146 0)
(0.205355 0.0151174 0)
(0.187796 0.0127834 0)
(0.17205 0.00805687 0)
(0.159446 0.00249955 0)
(0.150456 -0.00216941 0)
(0.145077 -0.00488834 0)
(0.142674 -0.00565266 0)
(0.142569 -0.0049559 0)
(0.143916 -0.00358089 0)
(0.14638 -0.00247254 0)
(0.14959 -0.00182363 0)
(0.153672 -0.00163567 0)
(0.158428 -0.00151661 0)
(0.162769 -0.00150898 0)
(0.169525 -0.00105875 0)
(-0.00281853 0.0198971 0)
(-0.0277052 0.0374382 0)
(-0.0756162 0.0564581 0)
(-0.116575 0.0740786 0)
(-0.155931 0.0821247 0)
(-0.185398 0.0793274 0)
(-0.207001 0.069072 0)
(-0.220109 0.0546285 0)
(-0.223476 0.036997 0)
(-0.215374 0.0167283 0)
(-0.196674 -0.00489073 0)
(-0.166421 -0.0267688 0)
(-0.125159 -0.0476832 0)
(-0.0733087 -0.0664579 0)
(-0.0131436 -0.081372 0)
(0.0541518 -0.0913848 0)
(0.124293 -0.0962344 0)
(0.194615 -0.0966936 0)
(0.262492 -0.0931601 0)
(0.326121 -0.0859289 0)
(0.383652 -0.0754415 0)
(0.433248 -0.0624789 0)
(0.473801 -0.0480854 0)
(0.504685 -0.0335149 0)
(0.526317 -0.0198473 0)
(0.539209 -0.00799542 0)
(0.544102 0.00186012 0)
(0.541646 0.00988296 0)
(0.533544 0.015648 0)
(0.522768 0.0191439 0)
(0.51191 0.020668 0)
(0.502031 0.020528 0)
(0.492052 0.0195413 0)
(0.481157 0.0181162 0)
(0.470186 0.0158792 0)
(0.459707 0.0123784 0)
(0.449128 0.00810047 0)
(0.438547 0.00370677 0)
(0.428059 -5.41699e-05 0)
(0.418964 -0.00340645 0)
(0.412795 -0.00571322 0)
(0.409717 -0.00792475 0)
(0.411289 -0.00820309 0)
(0.412673 -0.00910662 0)
(0.420614 -0.00679587 0)
(-0.0337654 -0.00519758 0)
(-0.0648824 0.039431 0)
(-0.0699736 0.0632291 0)
(-0.0684016 0.0808594 0)
(-0.0583504 0.0868178 0)
(-0.0425191 0.0806929 0)
(-0.0232335 0.0649398 0)
(-0.000330805 0.0442927 0)
(0.0258438 0.0197035 0)
(0.0596706 -0.00736557 0)
(0.101124 -0.0372867 0)
(0.151082 -0.0689155 0)
(0.206038 -0.0990805 0)
(0.266413 -0.12585 0)
(0.329867 -0.146901 0)
(0.394214 -0.160329 0)
(0.457463 -0.16628 0)
(0.517938 -0.165536 0)
(0.573969 -0.158617 0)
(0.624622 -0.145617 0)
(0.668775 -0.127443 0)
(0.70531 -0.105688 0)
(0.733449 -0.0820273 0)
(0.753534 -0.0580437 0)
(0.766001 -0.0352591 0)
(0.771114 -0.015451 0)
(0.770067 0.00112621 0)
(0.763957 0.0152832 0)
(0.753492 0.0262397 0)
(0.740373 0.0324101 0)
(0.726551 0.0346537 0)
(0.71204 0.0347967 0)
(0.696286 0.0326774 0)
(0.68033 0.0277479 0)
(0.665789 0.0213073 0)
(0.654556 0.0158683 0)
(0.646653 0.0139515 0)
(0.639952 0.0145168 0)
(0.631417 0.0153679 0)
(0.620383 0.01284 0)
(0.607154 0.00812753 0)
(0.594411 0.000464155 0)
(0.58317 -0.00450947 0)
(0.575986 -0.0097478 0)
(0.57019 -0.00971305 0)
(-0.0273364 0.139465 0)
(-0.0195218 0.0891183 0)
(-0.000527921 0.0774941 0)
(0.0338046 0.0733815 0)
(0.0775056 0.0671015 0)
(0.127037 0.0557167 0)
(0.180387 0.0377283 0)
(0.233947 0.0130682 0)
(0.289038 -0.0185148 0)
(0.347319 -0.0534844 0)
(0.407125 -0.0897035 0)
(0.468435 -0.126164 0)
(0.52968 -0.159757 0)
(0.590364 -0.188134 0)
(0.648766 -0.209439 0)
(0.702841 -0.221726 0)
(0.751667 -0.225179 0)
(0.794441 -0.220667 0)
(0.831119 -0.208063 0)
(0.862079 -0.188169 0)
(0.886989 -0.162362 0)
(0.905641 -0.131919 0)
(0.917797 -0.0997569 0)
(0.924108 -0.0682885 0)
(0.925403 -0.0387752 0)
(0.922025 -0.0127011 0)
(0.914545 0.0090551 0)
(0.904114 0.0261733 0)
(0.891424 0.039189 0)
(0.876757 0.0477088 0)
(0.860475 0.0513219 0)
(0.843539 0.0511716 0)
(0.82699 0.0491788 0)
(0.810749 0.0452248 0)
(0.79398 0.0387917 0)
(0.777505 0.0306923 0)
(0.762361 0.0241323 0)
(0.750426 0.0209687 0)
(0.739922 0.0216589 0)
(0.730904 0.0222992 0)
(0.718042 0.0211909 0)
(0.706542 0.0162655 0)
(0.688079 0.0101075 0)
(0.678638 0.00408548 0)
(0.65731 -0.00101054 0)
(0.0839325 0.00235413 0)
(0.117548 -0.00565914 0)
(0.20347 -0.00747351 0)
(0.271823 -0.0117972 0)
(0.338347 -0.0190558 0)
(0.406755 -0.0312435 0)
(0.477169 -0.0490427 0)
(0.544794 -0.0715816 0)
(0.611152 -0.0990946 0)
(0.67556 -0.130591 0)
(0.737108 -0.163138 0)
(0.794307 -0.19574 0)
(0.845138 -0.22456 0)
(0.889256 -0.246738 0)
(0.925611 -0.261385 0)
(0.95314 -0.266587 0)
(0.971885 -0.262678 0)
(0.983178 -0.252003 0)
(0.989266 -0.234026 0)
(0.99127 -0.20828 0)
(0.989346 -0.176547 0)
(0.984467 -0.140823 0)
(0.976858 -0.103521 0)
(0.967454 -0.0673342 0)
(0.956657 -0.0344444 0)
(0.945158 -0.00561386 0)
(0.9336 0.0182325 0)
(0.921909 0.0367308 0)
(0.910225 0.050283 0)
(0.898242 0.0593859 0)
(0.88583 0.0645953 0)
(0.872803 0.0667435 0)
(0.858673 0.0667539 0)
(0.843658 0.0640157 0)
(0.828215 0.0578543 0)
(0.813131 0.048862 0)
(0.798389 0.0402198 0)
(0.785565 0.034899 0)
(0.772798 0.0333898 0)
(0.762456 0.0338925 0)
(0.748526 0.032734 0)
(0.738412 0.0305617 0)
(0.71945 0.0241951 0)
(0.711358 0.0206409 0)
(0.68759 0.0125126 0)
)
;

boundaryField
{
    inlet
    {
        type            fixedValue;
        value           uniform (1 0 0);
    }
    outlet
    {
        type            zeroGradient;
    }
    upperWall
    {
        type            noSlip;
    }
    lowerWall
    {
        type            noSlip;
    }
    frontAndBack
    {
        type            empty;
    }
}


// ************************************************************************* //
