/*--------------------------------*- C++ -*----------------------------------*\
  =========                 |
  \\      /  F ield         | OpenFOAM: The Open Source CFD Toolbox
   \\    /   O peration     | Website:  https://openfoam.org
    \\  /    A nd           | Version:  10
     \\/     M anipulation  |
\*---------------------------------------------------------------------------*/
FoamFile
{
    format      ascii;
    class       volVectorField;
    location    "3.65";
    object      U;
}
// * * * * * * * * * * * * * * * * * * * * * * * * * * * * * * * * * * * * * //

dimensions      [0 1 -1 0 0 0 0];

internalField   nonuniform List<vector> 
8000
(
(-7.59743e-05 8.66913e-05 -1.43534e-05)
(-0.000503505 0.000192421 1.77856e-05)
(-0.00116523 0.000212573 2.69304e-05)
(-0.00178663 0.000210916 3.06288e-05)
(-0.00239548 0.000203416 2.98497e-05)
(-0.00296813 0.000192425 2.64042e-05)
(-0.00348946 0.00017747 2.11942e-05)
(-0.00394523 0.000157716 1.43443e-05)
(-0.00431977 0.000132362 6.02923e-06)
(-0.00459707 0.000100601 -4.04966e-06)
(-0.00476044 6.25416e-05 -1.50916e-05)
(-0.00479277 1.85446e-05 -2.70659e-05)
(-0.00467909 -3.21721e-05 -3.99399e-05)
(-0.00440802 -8.73141e-05 -5.31555e-05)
(-0.00397387 -0.000144431 -6.58946e-05)
(-0.00337909 -0.000200126 -7.68374e-05)
(-0.00263915 -0.00024956 -8.35788e-05)
(-0.00179862 -0.0002843 -8.23108e-05)
(-0.000842906 -0.000280248 -7.0436e-05)
(-0.00016211 -0.000149881 -1.99771e-05)
(-0.000180914 0.00054637 -5.91854e-05)
(-0.000916539 0.000956074 -2.9408e-05)
(-0.00196784 0.00102663 -1.86117e-05)
(-0.00295672 0.00100519 -1.10537e-05)
(-0.00391543 0.000953334 -7.44028e-06)
(-0.00480786 0.000881545 -6.08003e-06)
(-0.00560984 0.000789917 -6.06588e-06)
(-0.00629953 0.000677003 -7.29651e-06)
(-0.00685442 0.000541389 -9.83108e-06)
(-0.00725153 0.000381952 -1.3798e-05)
(-0.00746776 0.000198862 -1.92571e-05)
(-0.00748263 -7.2636e-06 -2.63696e-05)
(-0.00727649 -0.000232447 -3.43388e-05)
(-0.00683404 -0.000470062 -4.31959e-05)
(-0.00615028 -0.000710492 -5.21031e-05)
(-0.0052308 -0.000940387 -5.9596e-05)
(-0.00409968 -0.00114113 -6.28366e-05)
(-0.00281939 -0.00128001 -5.76348e-05)
(-0.00137618 -0.00126682 -4.19455e-05)
(-0.00029945 -0.000774392 1.57124e-05)
(-0.000208017 0.0012738 -7.78216e-05)
(-0.00103515 0.00208059 -4.89273e-05)
(-0.00220636 0.0022104 -3.74218e-05)
(-0.00330502 0.00215316 -2.82487e-05)
(-0.0043687 0.00203013 -2.28113e-05)
(-0.00535833 0.00186282 -1.94483e-05)
(-0.00624812 0.00165295 -1.73108e-05)
(-0.00701483 0.00139921 -1.636e-05)
(-0.00763435 0.00110015 -1.67563e-05)
(-0.0080822 0.000755055 -1.86825e-05)
(-0.0083342 0.000364567 -2.22157e-05)
(-0.00836499 -6.87401e-05 -2.75501e-05)
(-0.00815109 -0.000537546 -3.43702e-05)
(-0.00767541 -0.00102898 -4.24339e-05)
(-0.00692861 -0.00152379 -5.09111e-05)
(-0.00591296 -0.00199531 -5.81754e-05)
(-0.00465144 -0.00240668 -6.1004e-05)
(-0.00321211 -0.00269272 -5.46393e-05)
(-0.0015773 -0.00267638 -3.70604e-05)
(-0.000346833 -0.00171631 2.58708e-05)
(-0.000217093 0.0020121 -9.26473e-05)
(-0.00109066 0.00323163 -6.45679e-05)
(-0.00233042 0.00342099 -5.26517e-05)
(-0.00349236 0.00332745 -4.24246e-05)
(-0.00462002 0.00313425 -3.58079e-05)
(-0.00567308 0.0028737 -3.11599e-05)
(-0.00662581 0.00254871 -2.76631e-05)
(-0.00745476 0.00215771 -2.53379e-05)
(-0.00813519 0.00169869 -2.44175e-05)
(-0.00864115 0.00117039 -2.51677e-05)
(-0.00894576 0.000573562 -2.78375e-05)
(-0.00902179 -8.70915e-05 -3.28427e-05)
(-0.00883969 -0.000804771 -3.9355e-05)
(-0.00837316 -0.00156068 -4.75305e-05)
(-0.00760543 -0.00232707 -5.64655e-05)
(-0.00653113 -0.00306363 -6.4417e-05)
(-0.0051678 -0.00371272 -6.76507e-05)
(-0.00358788 -0.00417171 -6.05325e-05)
(-0.00176968 -0.00416657 -4.0802e-05)
(-0.000390323 -0.00270961 2.97204e-05)
(-0.000225769 0.00280634 -0.00010616)
(-0.00114922 0.00447091 -7.82693e-05)
(-0.00246558 0.00472471 -6.5968e-05)
(-0.0036998 0.00459433 -5.49684e-05)
(-0.00490193 0.00432953 -4.76233e-05)
(-0.00603058 0.00397422 -4.22771e-05)
(-0.00706055 0.00353262 -3.81267e-05)
(-0.0079687 0.00300266 -3.52398e-05)
(-0.00873001 0.00238127 -3.39106e-05)
(-0.00931712 0.0016657 -3.44894e-05)
(-0.00969995 0.000855057 -3.73503e-05)
(-0.00984726 -4.76482e-05 -4.30743e-05)
(-0.0097217 -0.00103219 -5.04277e-05)
(-0.00928565 -0.00207964 -6.01391e-05)
(-0.00850965 -0.00315456 -7.10914e-05)
(-0.00737389 -0.00420241 -8.12104e-05)
(-0.00588429 -0.0051406 -8.60265e-05)
(-0.0041169 -0.0058189 -7.85643e-05)
(-0.00204562 -0.00584706 -5.58385e-05)
(-0.000454799 -0.00383678 2.6965e-05)
(-0.00023727 0.00365962 -0.000121123)
(-0.0012242 0.00580753 -9.29905e-05)
(-0.00263759 0.00613257 -8.02748e-05)
(-0.00396347 0.00596587 -6.85536e-05)
(-0.00525975 0.00562952 -6.06247e-05)
(-0.00648398 0.00518019 -5.48087e-05)
(-0.007612 0.0046235 -5.03199e-05)
(-0.00862162 0.00395662 -4.72794e-05)
(-0.0094881 0.00317467 -4.60445e-05)
(-0.0101833 0.00227223 -4.70385e-05)
(-0.0106746 0.00124489 -5.06895e-05)
(-0.0109236 9.17101e-05 -5.73014e-05)
(-0.0108851 -0.00117911 -6.76384e-05)
(-0.0105078 -0.00255066 -8.05663e-05)
(-0.00974073 -0.00398228 -9.5439e-05)
(-0.00854196 -0.00540545 -0.00010985)
(-0.00689564 -0.00670823 -0.000118174)
(-0.00487649 -0.00767842 -0.000111368)
(-0.00245058 -0.00777876 -8.48808e-05)
(-0.0005528 -0.00514573 1.56974e-05)
(-0.000251889 0.00458572 -0.000139551)
(-0.0013179 0.00726367 -0.000111105)
(-0.00285115 0.00766808 -9.79075e-05)
(-0.00428925 0.00746532 -8.53013e-05)
(-0.0057 0.00705737 -7.66459e-05)
(-0.00703992 0.00651527 -7.02634e-05)
(-0.00828675 0.00584639 -6.54177e-05)
(-0.00942028 0.00504696 -6.23105e-05)
(-0.0104172 0.00410961 -6.13949e-05)
(-0.0112498 0.00302476 -6.32116e-05)
(-0.0118832 0.00178225 -6.82889e-05)
(-0.0122739 0.000374319 -7.70091e-05)
(-0.0123666 -0.00120033 -9.16747e-05)
(-0.0120915 -0.00293059 -0.000109942)
(-0.0113695 -0.00477707 -0.000131609)
(-0.0101237 -0.00666079 -0.000153867)
(-0.00829927 -0.00843675 -0.000169348)
(-0.00595586 -0.00981206 -0.000165676)
(-0.00304394 -0.0100524 -0.000134987)
(-0.000703395 -0.00671495 -8.83177e-06)
(-0.000269612 0.00560239 -0.000163016)
(-0.00143133 0.00886728 -0.000134472)
(-0.00310839 0.00935972 -0.000120649)
(-0.00467894 0.00911968 -0.000106768)
(-0.00622333 0.0086388 -9.69627e-05)
(-0.00769728 0.00800471 -8.96218e-05)
(-0.00908168 0.0072273 -8.41214e-05)
(-0.0103599 0.00630205 -8.07959e-05)
(-0.0115119 0.00521865 -8.02449e-05)
(-0.0125123 0.00396203 -8.3208e-05)
(-0.0133267 0.0025135 -9.03885e-05)
(-0.0139079 0.000853521 -0.000102169)
(-0.0141918 -0.00103311 -0.000123611)
(-0.0140867 -0.00315299 -0.000150324)
(-0.0134767 -0.00547859 -0.000183403)
(-0.0122329 -0.00793023 -0.000219733)
(-0.010234 -0.0103309 -0.000249492)
(-0.00749263 -0.0122867 -0.000254725)
(-0.00392779 -0.0127853 -0.000220638)
(-0.000943769 -0.00865986 -5.82921e-05)
(-0.000290881 0.00673056 -0.000193352)
(-0.00156682 0.0106504 -0.000165223)
(-0.00341318 0.0112387 -0.000150481)
(-0.00513574 0.010957 -0.00013459)
(-0.0068309 0.0103991 -0.000122807)
(-0.00845409 0.00967215 -0.00011371)
(-0.00999101 0.00878998 -0.000106889)
(-0.0114306 0.00774804 -0.000102887)
(-0.0127591 0.00653327 -0.000102529)
(-0.0139569 0.00512434 -0.000106883)
(-0.0149939 0.00349158 -0.000117247)
(-0.0158227 0.00159864 -0.000135719)
(-0.0163755 -0.000592863 -0.000164679)
(-0.0165399 -0.00311626 -0.0002041)
(-0.0161546 -0.00598014 -0.000256)
(-0.0150182 -0.00912438 -0.000317233)
(-0.0129032 -0.0123532 -0.000374989)
(-0.00970784 -0.0151573 -0.000402466)
(-0.00528939 -0.0161236 -0.000369521)
(-0.00135109 -0.0111605 -0.000159711)
(-0.000317216 0.0079968 -0.000233201)
(-0.00172972 0.0126517 -0.000206326)
(-0.00377355 0.0133405 -0.000190052)
(-0.0056668 0.0130068 -0.000170815)
(-0.00752682 0.0123622 -0.000155552)
(-0.00930958 0.011538 -0.000143249)
(-0.0110078 0.0105534 -0.000133866)
(-0.0126187 0.00940559 -0.000128249)
(-0.014138 0.0080798 -0.000127528)
(-0.0155566 0.00654905 -0.000133194)
(-0.0168552 0.00477188 -0.000147271)
(-0.0179953 0.00269097 -0.000172756)
(-0.0189099 0.000234129 -0.000212386)
(-0.0194781 -0.00267206 -0.000272797)
(-0.0194958 -0.0061056 -0.000355282)
(-0.0186639 -0.0100659 -0.00045973)
(-0.0165984 -0.0143794 -0.000571279)
(-0.0129613 -0.0184296 -0.000651117)
(-0.00748946 -0.0202345 -0.000634584)
(-0.00209231 -0.01451 -0.000377886)
(-0.000352434 0.00943784 -0.00028676)
(-0.0019313 0.0149202 -0.000262293)
(-0.00420518 0.0157063 -0.000243209)
(-0.00628661 0.0152996 -0.000218181)
(-0.00832102 0.0145497 -0.000196762)
(-0.0102666 0.0136167 -0.00017872)
(-0.0121258 0.0125282 -0.000164609)
(-0.0139069 0.0112847 -0.000155677)
(-0.0156185 0.00987262 -0.000153405)
(-0.017268 0.00826199 -0.00015976)
(-0.0188554 0.00640171 -0.000177587)
(-0.0203642 0.00421314 -0.00021086)
(-0.0217426 0.00158486 -0.000264124)
(-0.0228854 -0.00162496 -0.000355954)
(-0.0235643 -0.00558558 -0.000485654)
(-0.0233741 -0.010434 -0.000661872)
(-0.0217232 -0.0161144 -0.000873159)
(-0.0178416 -0.0219699 -0.00106845)
(-0.01124 -0.0252523 -0.00112067)
(-0.00353412 -0.0192242 -0.000884076)
(-0.000405342 0.0111096 -0.000361182)
(-0.00219418 0.0175217 -0.000340328)
(-0.00473722 0.0183863 -0.000315774)
(-0.00702211 0.0178676 -0.000280426)
(-0.00923353 0.0169787 -0.0002481)
(-0.0113352 0.0159138 -0.000219967)
(-0.0133424 0.0147112 -0.000197488)
(-0.0152769 0.0133778 -0.000182387)
(-0.0171635 0.0119047 -0.000176467)
(-0.0190306 0.0102649 -0.00018216)
(-0.0209076 0.00840509 -0.000203358)
(-0.0228163 0.00623415 -0.000246081)
(-0.024753 0.0036054 -0.000319612)
(-0.0266565 0.000293892 -0.000442329)
(-0.0283289 -0.00400222 -0.000638958)
(-0.0293158 -0.00966857 -0.00092599)
(-0.0287927 -0.016937 -0.00131043)
(-0.0252904 -0.0252959 -0.00173823)
(-0.0179666 -0.0310876 -0.00201338)
(-0.0065264 -0.0263159 -0.00208119)
(-0.000496588 0.0131082 -0.000469658)
(-0.00256394 0.0205542 -0.000452913)
(-0.0054218 0.021445 -0.00041705)
(-0.00792032 0.0207446 -0.000362648)
(-0.0103005 0.0196596 -0.000310869)
(-0.0125376 0.0184215 -0.000265202)
(-0.0146635 0.01708 -0.000228354)
(-0.0167148 0.0156509 -0.000202486)
(-0.0187329 0.0141347 -0.000189459)
(-0.0207691 0.0125149 -0.000191786)
(-0.0228878 0.0107494 -0.000214034)
(-0.0251661 0.00875125 -0.000264264)
(-0.0276862 0.00635587 -0.000356176)
(-0.0305011 0.00327156 -0.000510687)
(-0.0335633 -0.000970715 -0.000795703)
(-0.036506 -0.00704957 -0.00121803)
(-0.0383578 -0.0157836 -0.00184554)
(-0.0366955 -0.0272445 -0.00265209)
(-0.0303794 -0.0371677 -0.00347971)
(-0.0130029 -0.0374328 -0.00474498)
(-0.000673526 0.0155602 -0.000637346)
(-0.00313722 0.0241496 -0.000622526)
(-0.00635536 0.024975 -0.000565638)
(-0.00906094 0.0239839 -0.00047549)
(-0.0115824 0.0226038 -0.000386984)
(-0.0139157 0.0211139 -0.000309222)
(-0.0161113 0.0195815 -0.000247305)
(-0.0182197 0.0180302 -0.000203288)
(-0.0202961 0.0164716 -0.000178003)
(-0.0224116 0.0149096 -0.000173016)
(-0.0246663 0.0133358 -0.00019292)
(-0.0272045 0.0117095 -0.000247931)
(-0.0302273 0.00991419 -0.000355302)
(-0.0339823 0.00766074 -0.000540498)
(-0.0386943 0.00435032 -0.000821425)
(-0.0444371 -0.00111817 -0.00127585)
(-0.0505277 -0.0104714 -0.00207569)
(-0.0535492 -0.0255934 -0.00323903)
(-0.0518641 -0.0422061 -0.00468772)
(-0.0254911 -0.0559851 -0.0086251)
(-0.000993685 0.0189865 -0.000918679)
(-0.00400919 0.0283609 -0.000868538)
(-0.00765902 0.028798 -0.000757452)
(-0.0105658 0.0272601 -0.000593212)
(-0.0131902 0.025502 -0.000445834)
(-0.0155521 0.0237545 -0.000321836)
(-0.0177344 0.0220403 -0.000224611)
(-0.0198075 0.0203639 -0.000154377)
(-0.021831 0.0187477 -0.000110251)
(-0.0238757 0.0172302 -9.18646e-05)
(-0.0260494 0.0158616 -9.91642e-05)
(-0.0285356 0.0146787 -0.000134576)
(-0.0316623 0.0136829 -0.000202246)
(-0.0359672 0.0127133 -0.00030658)
(-0.0422556 0.0112388 -0.00043612)
(-0.051516 0.00777291 -0.000563118)
(-0.0643838 -0.000360652 -0.000710166)
(-0.075734 -0.0192086 -0.000828013)
(-0.0830149 -0.0473969 -0.00072163)
(-0.0428829 -0.0923314 -0.0089042)
(-0.00220813 0.0226252 -0.00141894)
(-0.00634324 0.0345273 -0.00145005)
(-0.00986474 0.0345079 -0.00120801)
(-0.0126636 0.0324317 -0.000903396)
(-0.0150981 0.0298739 -0.000600445)
(-0.0173421 0.0273491 -0.000347229)
(-0.019438 0.0249941 -0.000154284)
(-0.0214159 0.0228526 -1.97637e-05)
(-0.0232963 0.0209634 6.55261e-05)
(-0.0251231 0.0193731 0.000105874)
(-0.026997 0.0181887 0.000109886)
(-0.0291058 0.0175557 8.99261e-05)
(-0.0318323 0.0177128 8.07454e-05)
(-0.0359127 0.018816 0.000169342)
(-0.0428086 0.0206802 0.000593299)
(-0.0545081 0.0214375 0.0019085)
(-0.0744645 0.0168051 0.0049071)
(-0.0951641 -0.0109492 0.00992429)
(-0.11541 -0.0671059 0.014431)
(-0.0541408 -0.165934 -0.00339986)
(-0.00157808 0.0341043 -0.00242131)
(-0.00649047 0.0385903 -0.0018465)
(-0.0122177 0.0369112 -0.00142533)
(-0.015356 0.0330919 -0.000777615)
(-0.0180787 0.0301017 -0.000300183)
(-0.0200639 0.0275474 6.58466e-05)
(-0.0216493 0.0253187 0.000314112)
(-0.0230059 0.0233053 0.000470015)
(-0.0242067 0.0215163 0.000556931)
(-0.0252661 0.0199835 0.000589026)
(-0.0262043 0.018895 0.000590745)
(-0.027062 0.0184487 0.000601764)
(-0.0281099 0.0191672 0.000736756)
(-0.0300303 0.0214105 0.00127819)
(-0.034862 0.0257748 0.00298882)
(-0.04491 0.0287849 0.0073981)
(-0.0715132 0.0250479 0.0166569)
(-0.0997867 -0.0215825 0.0271007)
(-0.134174 -0.122078 0.0287803)
(-0.0476453 -0.269294 -0.00927236)
(-0.0116412 0.0326769 -0.00357352)
(-0.0216558 0.0552287 -0.00375581)
(-0.0181066 0.0505114 -0.00283157)
(-0.0196788 0.0452543 -0.00167115)
(-0.0191684 0.039235 -0.000554639)
(-0.0186883 0.0340423 0.000260853)
(-0.0181898 0.0296853 0.000805694)
(-0.0177631 0.0260653 0.00112838)
(-0.0173801 0.0231274 0.00128997)
(-0.0169012 0.0207495 0.00131394)
(-0.0163477 0.0190866 0.00126857)
(-0.015458 0.0182718 0.00119942)
(-0.0145113 0.0189435 0.00133471)
(-0.0131167 0.0216695 0.00207287)
(-0.0143745 0.0279164 0.00472632)
(-0.0149446 0.0329087 0.0108938)
(-0.0362049 0.0290366 0.0237677)
(-0.0510775 -0.0396198 0.0351623)
(-0.106989 -0.180908 0.024533)
(-0.0241373 -0.346229 -0.0359054)
(-0.0463226 0.0910903 -0.0106585)
(-0.0307589 0.0456121 -0.00588556)
(-0.0226168 0.039201 -0.00319163)
(-0.00671219 0.0320491 -0.000567808)
(0.00604486 0.0257591 0.00117143)
(0.0177188 0.0215407 0.00225917)
(0.0271695 0.0186624 0.0029145)
(0.0349903 0.0163761 0.00321148)
(0.041173 0.0146405 0.00328613)
(0.046626 0.0130917 0.00312131)
(0.0509598 0.0121656 0.00282357)
(0.0558207 0.0113381 0.00243074)
(0.0599628 0.0115622 0.00209825)
(0.0675045 0.0116447 0.00195816)
(0.0711348 0.0128887 0.0035309)
(0.090395 0.0100499 0.00648024)
(0.0787611 -0.00349154 0.0155484)
(0.103248 -0.0707816 0.0278243)
(-0.00326235 -0.216844 0.00600463)
(0.0243068 -0.354554 -0.0573324)
(0.117746 0.11166 -0.0110516)
(0.145084 0.0599566 -0.011013)
(0.217811 0.040073 -0.0100875)
(0.262032 0.0272529 -0.00821836)
(0.294429 0.0187266 -0.00613282)
(0.320007 0.0130461 -0.00429733)
(0.339401 0.00950424 -0.00259283)
(0.355056 0.00714393 -0.00131861)
(0.365831 0.00572232 -6.29216e-05)
(0.376157 0.00472122 0.00060873)
(0.381092 0.00406212 0.00123549)
(0.390233 0.00387521 0.00140231)
(0.390031 0.00314585 0.0012707)
(0.403544 0.00378793 0.00171819)
(0.394017 0.00164116 0.000617366)
(0.419179 0.00120015 0.00305399)
(0.381025 -0.00727707 0.00117835)
(0.40713 -0.025444 0.00369162)
(0.249302 -0.0671301 -0.00408988)
(0.167765 -0.137314 -0.0696564)
(-0.000145548 0.000150798 -3.65768e-05)
(-0.000863976 0.000345884 6.35182e-06)
(-0.0019407 0.000382486 2.11158e-05)
(-0.00293996 0.000375103 2.88397e-05)
(-0.00390217 0.000355253 2.93828e-05)
(-0.00479343 0.000328182 2.52302e-05)
(-0.00559178 0.000293722 1.77482e-05)
(-0.00627631 0.000251123 7.47342e-06)
(-0.00682491 0.000199533 -5.60014e-06)
(-0.00721475 0.000138603 -2.16369e-05)
(-0.00742339 6.79646e-05 -4.00994e-05)
(-0.00742997 -1.16084e-05 -6.07474e-05)
(-0.00721596 -9.93832e-05 -8.30938e-05)
(-0.00676817 -0.000192436 -0.00010597)
(-0.00608156 -0.000286881 -0.000127796)
(-0.00516154 -0.000377471 -0.000146154)
(-0.00403 -0.000456539 -0.000157001)
(-0.00274679 -0.000509201 -0.000154482)
(-0.00128927 -0.000489344 -0.000134993)
(-0.000249911 -0.000243671 -5.48605e-05)
(-0.000352239 0.000893597 -0.000108839)
(-0.00165153 0.00163639 -7.0288e-05)
(-0.00344655 0.0017636 -5.19352e-05)
(-0.00511987 0.00171323 -3.74629e-05)
(-0.00671618 0.00160415 -2.96622e-05)
(-0.0081797 0.00145819 -2.61355e-05)
(-0.00947257 0.00127742 -2.55387e-05)
(-0.0105611 0.00106127 -2.76425e-05)
(-0.0114116 0.000809078 -3.25588e-05)
(-0.0119913 0.000521164 -4.04798e-05)
(-0.0122693 0.000198485 -5.15253e-05)
(-0.0122183 -0.000156183 -6.5777e-05)
(-0.011815 -0.000535043 -8.1892e-05)
(-0.011044 -0.000927392 -9.94446e-05)
(-0.00990272 -0.00131809 -0.000116692)
(-0.00840381 -0.00168659 -0.000130813)
(-0.00658438 -0.00200353 -0.00013691)
(-0.00453216 -0.00221189 -0.000128402)
(-0.00222705 -0.00214241 -0.000102535)
(-0.000494957 -0.00123047 -1.10449e-05)
(-0.000412188 0.00204819 -0.00014165)
(-0.00189612 0.00349764 -0.000106067)
(-0.00392433 0.00373107 -8.63665e-05)
(-0.00581019 0.00360992 -6.88957e-05)
(-0.00760582 0.00336554 -5.78028e-05)
(-0.0092499 0.00304167 -5.07325e-05)
(-0.0107013 0.00264464 -4.64271e-05)
(-0.0119235 0.00217537 -4.48197e-05)
(-0.0128804 0.00163464 -4.61792e-05)
(-0.0135367 0.00102437 -5.08214e-05)
(-0.0138598 0.000348436 -5.88925e-05)
(-0.0138168 -0.000386231 -7.05567e-05)
(-0.0133798 -0.00116584 -8.5106e-05)
(-0.0125307 -0.00196916 -0.000101809)
(-0.0112625 -0.00276602 -0.000118866)
(-0.00958425 -0.00351568 -0.000133123)
(-0.00753267 -0.00416014 -0.000138994)
(-0.00520391 -0.0045867 -0.000128958)
(-0.00257271 -0.00446684 -0.000100292)
(-0.000578415 -0.00270226 -7.49262e-07)
(-0.000436964 0.00321465 -0.000169996)
(-0.00201777 0.00539669 -0.000137512)
(-0.00417914 0.00573641 -0.000116999)
(-0.00618652 0.00554247 -9.73639e-05)
(-0.00810075 0.00516285 -8.38794e-05)
(-0.00985821 0.00466291 -7.42478e-05)
(-0.0114173 0.00405265 -6.72943e-05)
(-0.0127412 0.00333404 -6.30959e-05)
(-0.0137925 0.00250846 -6.20719e-05)
(-0.014534 0.00157842 -6.46962e-05)
(-0.0149296 0.000549314 -7.13866e-05)
(-0.0149427 -0.000568076 -8.26983e-05)
(-0.0145371 -0.0017575 -9.72924e-05)
(-0.0136835 -0.00298887 -0.000114926)
(-0.0123645 -0.00421816 -0.000133652)
(-0.0105788 -0.00538357 -0.000150008)
(-0.00835617 -0.00639476 -0.000157461)
(-0.00579865 -0.00707549 -0.000146989)
(-0.0028755 -0.00692043 -0.000115373)
(-0.000646725 -0.00424509 -3.58352e-06)
(-0.000462091 0.00446241 -0.000197489)
(-0.00214644 0.00743061 -0.000167425)
(-0.00445446 0.00788363 -0.000146122)
(-0.00659798 0.00761408 -0.000124675)
(-0.00864735 0.00709457 -0.000109403)
(-0.010537 0.00641347 -9.80382e-05)
(-0.0122257 0.00558461 -8.9477e-05)
(-0.0136769 0.00461073 -8.39296e-05)
(-0.0148525 0.00349302 -8.19714e-05)
(-0.0157135 0.00223329 -8.42673e-05)
(-0.0162191 0.000836144 -9.14773e-05)
(-0.0163263 -0.00068772 -0.000104408)
(-0.0159881 -0.00231933 -0.000121398)
(-0.01516 -0.00402323 -0.000142872)
(-0.0138064 -0.00574331 -0.000166543)
(-0.0119066 -0.00739539 -0.000188277)
(-0.00947478 -0.00884986 -0.000200116)
(-0.00661753 -0.00985075 -0.000190634)
(-0.00329861 -0.00968293 -0.000155113)
(-0.000744221 -0.00598936 -2.26587e-05)
(-0.00049493 0.00580203 -0.000228642)
(-0.00231096 0.00962144 -0.000200747)
(-0.00480455 0.0101973 -0.000178532)
(-0.0071205 0.00984955 -0.000155188)
(-0.00934059 0.00918604 -0.000138186)
(-0.0113972 0.00832007 -0.000125292)
(-0.0132504 0.00726962 -0.000115497)
(-0.0148646 0.00603778 -0.000109171)
(-0.0162022 0.00462454 -0.00010707)
(-0.0172228 0.00302911 -0.000110068)
(-0.0178811 0.00125251 -0.000119037)
(-0.0181266 -0.000698562 -0.000134689)
(-0.0178984 -0.00280854 -0.000157676)
(-0.0171308 -0.00504044 -0.000186507)
(-0.0157611 -0.00732916 -0.000219319)
(-0.0137372 -0.0095679 -0.000251215)
(-0.0110436 -0.0115798 -0.000272022)
(-0.00778432 -0.0130051 -0.000266484)
(-0.0039142 -0.0128666 -0.000226575)
(-0.000890975 -0.00801432 -6.27339e-05)
(-0.000536907 0.00725789 -0.00026714)
(-0.00251811 0.0120082 -0.000241872)
(-0.00524234 0.0127178 -0.00021848)
(-0.00777085 0.0122876 -0.000192695)
(-0.0101998 0.0114744 -0.000173429)
(-0.0124598 0.0104189 -0.000158552)
(-0.0145132 0.00914413 -0.000147231)
(-0.0163272 0.0076532 -0.000140064)
(-0.0178665 0.00594378 -0.000138069)
(-0.0190907 0.00401019 -0.000142434)
(-0.0199517 0.00184615 -0.000154389)
(-0.0203919 -0.000550516 -0.000175063)
(-0.0203343 -0.00317597 -0.000206982)
(-0.0196854 -0.00599941 -0.000247684)
(-0.0183446 -0.00895511 -0.000295858)
(-0.01621 -0.0119174 -0.000345726)
(-0.013212 -0.0146541 -0.000383837)
(-0.00943292 -0.0166688 -0.000388695)
(-0.00480905 -0.0166372 -0.000345327)
(-0.00111356 -0.0104465 -0.000135535)
(-0.000588877 0.00885917 -0.000316263)
(-0.00277222 0.0146373 -0.000294707)
(-0.0057758 0.0154915 -0.000269632)
(-0.00855801 0.0149713 -0.000240308)
(-0.0112335 0.013999 -0.000217584)
(-0.0137313 0.0127474 -0.000199577)
(-0.0160184 0.0112451 -0.000185771)
(-0.0180672 0.00949588 -0.00017711)
(-0.0198476 0.00749407 -0.000174988)
(-0.0213228 0.00522668 -0.000181077)
(-0.0224442 0.00267537 -0.00019719)
(-0.0231511 -0.000179616 -0.000225198)
(-0.0233499 -0.00334885 -0.000270252)
(-0.0229137 -0.00682928 -0.00032918)
(-0.0216917 -0.0105686 -0.00040233)
(-0.0195068 -0.0144344 -0.000483297)
(-0.0161955 -0.018137 -0.000554208)
(-0.0117718 -0.0210028 -0.000583297)
(-0.0061344 -0.0212217 -0.000541109)
(-0.00146471 -0.0134803 -0.000266338)
(-0.000652564 0.0106388 -0.000380007)
(-0.00308002 0.01756 -0.000363919)
(-0.00641618 0.0185677 -0.000336216)
(-0.00949387 0.0179434 -0.000301421)
(-0.0124517 0.0167976 -0.000273081)
(-0.015218 0.0153395 -0.000249821)
(-0.0177671 0.0136057 -0.000231662)
(-0.0200808 0.0116015 -0.00022006)
(-0.0221384 0.00931777 -0.000216932)
(-0.0239123 0.00673228 -0.000224627)
(-0.0253609 0.00381006 -0.00024581)
(-0.026419 0.000506258 -0.00028375)
(-0.0269873 -0.00321984 -0.000347117)
(-0.0269101 -0.00741163 -0.000433194)
(-0.0259673 -0.0120594 -0.000546004)
(-0.023876 -0.0170539 -0.000679862)
(-0.02032 -0.022062 -0.000812015)
(-0.0151466 -0.026194 -0.000894988)
(-0.0081793 -0.0269329 -0.000868108)
(-0.00205925 -0.0174386 -0.000508789)
(-0.000731503 0.0126365 -0.000464067)
(-0.00345335 0.0208356 -0.000455966)
(-0.00718188 0.0219997 -0.000423862)
(-0.0105972 0.0212474 -0.000380262)
(-0.0138696 0.0199045 -0.000342595)
(-0.0169283 0.0182234 -0.000310437)
(-0.0197593 0.0162519 -0.000284685)
(-0.0223583 0.0139985 -0.0002675)
(-0.0247203 0.0114518 -0.000261484)
(-0.0268342 0.00857965 -0.000269908)
(-0.0286741 0.00532773 -0.000297053)
(-0.0301849 0.00161949 -0.000349192)
(-0.0312724 -0.00264013 -0.000432692)
(-0.0317603 -0.00756211 -0.00055883)
(-0.0313592 -0.0132263 -0.000732699)
(-0.0296482 -0.0196069 -0.000954248)
(-0.026079 -0.0263827 -0.00119849)
(-0.0201489 -0.0324307 -0.0013978)
(-0.0115376 -0.034209 -0.00142545)
(-0.00316406 -0.0229196 -0.000983332)
(-0.000832712 0.0149043 -0.000577237)
(-0.00391312 0.0245358 -0.000580432)
(-0.00810336 0.0258466 -0.000540578)
(-0.0118985 0.0249257 -0.000482406)
(-0.0155117 0.0233484 -0.000429121)
(-0.0188764 0.021418 -0.000381996)
(-0.0219956 0.0191975 -0.000343277)
(-0.0248846 0.0167018 -0.000316041)
(-0.0275612 0.0139195 -0.000303626)
(-0.0300406 0.0108108 -0.000310256)
(-0.0323257 0.00730163 -0.000341843)
(-0.0343919 0.00327698 -0.000406865)
(-0.0361748 -0.00142601 -0.000516356)
(-0.0375064 -0.00701357 -0.000697776)
(-0.0380502 -0.0137289 -0.000960196)
(-0.0372392 -0.0217352 -0.00132013)
(-0.0342121 -0.0308606 -0.00176199)
(-0.027829 -0.0398023 -0.00220058)
(-0.0175061 -0.0436186 -0.00239771)
(-0.0054359 -0.0311344 -0.00198253)
(-0.000970075 0.0175152 -0.000733857)
(-0.00449627 0.0287504 -0.000752092)
(-0.00923096 0.0301748 -0.000698174)
(-0.0134464 0.0290188 -0.000615369)
(-0.0174167 0.0271486 -0.000535821)
(-0.0210854 0.0249276 -0.000463749)
(-0.0244793 0.0224377 -0.000403428)
(-0.0276401 0.0197043 -0.000358999)
(-0.0306152 0.0167204 -0.000334412)
(-0.0334563 0.0134442 -0.000334651)
(-0.0362126 0.00978862 -0.000367301)
(-0.038918 0.00560541 -0.000443954)
(-0.0415698 0.000660827 -0.000581849)
(-0.044078 -0.00537878 -0.000819849)
(-0.0461429 -0.0130136 -0.00119778)
(-0.0471114 -0.0227429 -0.0017576)
(-0.0457856 -0.0348198 -0.00252264)
(-0.0400457 -0.0479801 -0.00341329)
(-0.0288864 -0.0556913 -0.00408366)
(-0.010519 -0.0448302 -0.00419508)
(-0.00117267 0.0205864 -0.00095878)
(-0.00526927 0.0336037 -0.000995177)
(-0.010646 0.0350582 -0.00091468)
(-0.0153167 0.0335584 -0.000789167)
(-0.0196445 0.0313086 -0.000665301)
(-0.0235929 0.0287356 -0.000552019)
(-0.0272216 0.0259421 -0.000456462)
(-0.0306042 0.0229673 -0.000383845)
(-0.0338234 0.0198152 -0.000338144)
(-0.0369741 0.0164512 -0.000324175)
(-0.0401661 0.0127895 -0.000350005)
(-0.0435217 0.00866464 -0.000429853)
(-0.047163 0.00378693 -0.000589545)
(-0.0511997 -0.00232164 -0.000873844)
(-0.0555213 -0.0103824 -0.00137393)
(-0.0596148 -0.0214575 -0.00215276)
(-0.0621206 -0.0367119 -0.00333371)
(-0.0597043 -0.0555594 -0.00490459)
(-0.0508177 -0.0704906 -0.00661955)
(-0.0218493 -0.0694738 -0.00875644)
(-0.00150413 0.0242391 -0.00129671)
(-0.00637311 0.0392654 -0.00135213)
(-0.0124942 0.0406316 -0.0012251)
(-0.0176263 0.0386377 -0.00102472)
(-0.0222804 0.0358597 -0.000822473)
(-0.0264544 0.0328183 -0.000638254)
(-0.0302461 0.0296507 -0.000484485)
(-0.0337638 0.0264105 -0.000366839)
(-0.0371264 0.0231137 -0.000287358)
(-0.0404753 0.0197452 -0.000248465)
(-0.0439905 0.0162524 -0.000256412)
(-0.0479101 0.0125117 -0.000325652)
(-0.0525449 0.00825973 -0.000481303)
(-0.058254 0.00294816 -0.000760057)
(-0.0654305 -0.00440745 -0.00121624)
(-0.0743426 -0.0155887 -0.00199643)
(-0.0838851 -0.0331148 -0.00333508)
(-0.0890295 -0.0591637 -0.00528603)
(-0.0867041 -0.0874453 -0.0079371)
(-0.0397688 -0.116339 -0.014504)
(-0.0019769 0.0291052 -0.00183166)
(-0.0077985 0.0455563 -0.00184673)
(-0.0148972 0.0464076 -0.00161878)
(-0.0205387 0.0435839 -0.00127785)
(-0.0254936 0.0402357 -0.000957488)
(-0.0297923 0.0367824 -0.000673888)
(-0.033613 0.033306 -0.000438947)
(-0.0371181 0.0298434 -0.000257366)
(-0.0404557 0.0264324 -0.000128475)
(-0.0437881 0.0230995 -4.98297e-05)
(-0.0473308 0.0198615 -1.6239e-05)
(-0.0514138 0.0166857 -2.32073e-05)
(-0.0565787 0.0134497 -6.65735e-05)
(-0.0636617 0.00974834 -0.000140198)
(-0.0738748 0.00457621 -0.000213347)
(-0.0886065 -0.00439051 -0.000161418)
(-0.107648 -0.021564 0.000117428)
(-0.121396 -0.0565587 0.000831286)
(-0.125605 -0.111158 0.000926147)
(-0.0479919 -0.200673 -0.0135721)
(-0.00390797 0.0337504 -0.00272206)
(-0.0116672 0.0549821 -0.00290563)
(-0.0186502 0.0551827 -0.00245673)
(-0.0243162 0.0515694 -0.0018733)
(-0.0291202 0.0469403 -0.00127242)
(-0.0333608 0.0422834 -0.000747296)
(-0.0371204 0.0378379 -0.000324134)
(-0.0405186 0.0336981 -8.59215e-06)
(-0.0436814 0.0299164 0.00021001)
(-0.0467705 0.0265294 0.000346004)
(-0.050021 0.0236343 0.00042472)
(-0.0537957 0.0213588 0.000486239)
(-0.058731 0.0199228 0.00061877)
(-0.0659179 0.0193744 0.00101684)
(-0.0771717 0.0191496 0.00217006)
(-0.0943128 0.0159626 0.00515454)
(-0.117959 0.0015923 0.0115046)
(-0.131736 -0.0511333 0.0213605)
(-0.141226 -0.149568 0.0266153)
(-0.0287201 -0.306618 -0.00682476)
(-0.0022387 0.0484329 -0.00439306)
(-0.0108351 0.0591548 -0.00371073)
(-0.0225305 0.0574829 -0.00295235)
(-0.02893 0.051912 -0.00181778)
(-0.0345183 0.0472775 -0.000920326)
(-0.0385059 0.0429386 -0.000175147)
(-0.0415508 0.0388695 0.000390981)
(-0.0439885 0.0350194 0.000792048)
(-0.0460561 0.0314563 0.00105486)
(-0.047904 0.028235 0.00121179)
(-0.0496854 0.0256076 0.00132424)
(-0.0515821 0.023808 0.00149493)
(-0.0540557 0.0235261 0.00197493)
(-0.0578718 0.0251438 0.00333931)
(-0.0648197 0.0290302 0.00699273)
(-0.0751918 0.0292633 0.0153952)
(-0.0971807 0.0165808 0.0317012)
(-0.10142 -0.0534584 0.0496558)
(-0.120501 -0.192882 0.0492387)
(0.0035492 -0.390281 -0.0151561)
(-0.0115694 0.0410843 -0.00608548)
(-0.0272927 0.0832259 -0.00662769)
(-0.0286679 0.0782901 -0.00528913)
(-0.0360481 0.0710484 -0.00341411)
(-0.0385825 0.0622032 -0.00152342)
(-0.0397149 0.0540422 -4.87852e-05)
(-0.0395876 0.0469117 0.00103429)
(-0.0388052 0.0407644 0.00175337)
(-0.037695 0.0355784 0.00218734)
(-0.0363283 0.031196 0.00238174)
(-0.0350212 0.0278451 0.0024607)
(-0.0334947 0.0257606 0.00254335)
(-0.0323101 0.0258379 0.00307207)
(-0.0302752 0.0287784 0.00479016)
(-0.0302686 0.036527 0.00982655)
(-0.0227939 0.0408221 0.0203598)
(-0.0300809 0.0355027 0.0403442)
(-0.00392317 -0.0405808 0.0603063)
(-0.0432628 -0.219928 0.047229)
(0.0451798 -0.430375 -0.0412413)
(-0.0745553 0.104342 -0.0153802)
(-0.0598795 0.0658636 -0.00936981)
(-0.0589323 0.062271 -0.00554888)
(-0.0388134 0.0534343 -0.0017949)
(-0.0214595 0.0448095 0.000759239)
(-0.00337495 0.038196 0.00263514)
(0.0130785 0.0331152 0.00396502)
(0.0282133 0.0287506 0.00474118)
(0.0412048 0.0252677 0.00514435)
(0.0533749 0.0219585 0.00513805)
(0.0631783 0.0197578 0.00487429)
(0.0734706 0.0175881 0.00444333)
(0.0810415 0.0172862 0.00407773)
(0.0940972 0.016769 0.00401495)
(0.0982371 0.0185093 0.00662528)
(0.13286 0.0157853 0.0109782)
(0.124902 -0.000766029 0.0216268)
(0.185769 -0.0517295 0.041589)
(0.121635 -0.227965 0.0218714)
(0.133442 -0.411376 -0.0627107)
(0.119884 0.140215 -0.0157401)
(0.153501 0.0867395 -0.0161631)
(0.23303 0.064557 -0.0151958)
(0.287659 0.0491673 -0.0129626)
(0.33039 0.0380712 -0.0103172)
(0.367081 0.0298037 -0.00785975)
(0.396658 0.0239084 -0.00534609)
(0.424389 0.019276 -0.00336645)
(0.443763 0.0158474 -0.00128548)
(0.466757 0.0132193 0.000112914)
(0.476979 0.0106785 0.00125854)
(0.49929 0.0097049 0.00219899)
(0.499967 0.00734802 0.00203498)
(0.527048 0.00763858 0.00300445)
(0.515088 0.00538179 0.00230506)
(0.551775 0.00342508 0.00346683)
(0.517481 -0.00295797 0.00475756)
(0.543636 -0.0246663 0.000417268)
(0.419757 -0.0670531 -0.00201098)
(0.297835 -0.143549 -0.0765578)
(-0.000157952 0.000157582 -4.70845e-05)
(-0.00094214 0.000374795 -3.3801e-05)
(-0.00211621 0.000415897 -2.40651e-05)
(-0.00320136 0.000407172 -1.64006e-05)
(-0.00424315 0.000384391 -1.31667e-05)
(-0.00520449 0.000353688 -1.34652e-05)