/*--------------------------------*- C++ -*----------------------------------*\
  =========                 |
  \\      /  F ield         | OpenFOAM: The Open Source CFD Toolbox
   \\    /   O peration     | Website:  https://openfoam.org
    \\  /    A nd           | Version:  10
     \\/     M anipulation  |
\*---------------------------------------------------------------------------*/
FoamFile
{
    format      ascii;
    class       volScalarField;
    location    "1.3";
    object      p;
}
// * * * * * * * * * * * * * * * * * * * * * * * * * * * * * * * * * * * * * //

dimensions      [0 2 -2 0 0 0 0];

internalField   nonuniform List<scalar> 
8000
(
9.41476e-07
2.84919e-05
0.000135634
0.000307407
0.000541741
0.000833629
0.00117647
0.00156233
0.00198204
0.00242534
0.00288102
0.00333713
0.00378119
0.00420052
0.00458259
0.00491544
0.00518821
0.00539179
0.0055208
0.00555704
-2.60164e-05
5.72865e-07
0.000108464
0.000281292
0.000517202
0.000811235
0.00115681
0.00154599
0.0019696
0.00241735
0.00287792
0.00333936
0.003789
0.00421396
0.0046015
0.00493941
0.00521655
0.00542356
0.00555511
0.0055917
-0.000135639
-0.000109161
2.12936e-06
0.000180666
0.000424614
0.000728899
0.0010868
0.00149022
0.00192979
0.00239496
0.00287423
0.0033551
0.0038245
0.00426902
0.00467522
0.00503015
0.00532181
0.00554003
0.00567893
0.00571721
-0.000319193
-0.000291925
-0.000174719
1.35395e-05
0.000271032
0.0005925
0.000970979
0.00139809
0.00186412
0.00235813
0.0028681
0.00338106
0.00388313
0.00435999
0.00479714
0.00518033
0.00549621
0.00573322
0.00588448
0.00592635
-0.00058171
-0.000553074
-0.000427335
-0.000225137
5.17011e-05
0.000397644
0.000805371
0.00126609
0.00176963
0.0023045
0.00285807
0.00341662
0.00396525
0.00448842
0.00497009
0.00539422
0.0057454
0.00600998
0.00617949
0.00622695
-0.00092988
-0.000899404
-0.000762369
-0.000541771
-0.000239448
0.000138676
0.000584798
0.00108959
0.00164229
0.00223077
0.00284163
0.00346031
0.00407068
0.00465566
0.00519724
0.00567695
0.00607654
0.00637928
0.00657427
0.00662982
-0.00137226
-0.00133954
-0.00118825
-0.000944467
-0.000610086
-0.000191561
0.000302677
0.00086263
0.00147684
0.00213244
0.00281524
0.0035098
0.00419862
0.00486282
0.00548205
0.0060347
0.00649865
0.00685282
0.00708261
0.00714954
-0.00191982
-0.0018845
-0.0017157
-0.00144351
-0.0010699
-0.000602067
-4.92617e-05
0.000577692
0.00126654
0.00200366
0.00277405
0.00356152
0.00434723
0.00511043
0.00582804
0.00647461
0.00702292
0.00744573
0.00772274
0.00780581
-0.0025863
-0.00254812
-0.00235814
-0.00205163
-0.0016308
-0.00110384
-0.000481085
0.000225602
0.00100308
0.00183697
0.00271159
0.00361028
0.00451309
0.00539769
0.00623808
0.00700431
0.00766263
0.00817712
0.00851865
0.00862509
-0.00338889
-0.00334761
-0.00313212
-0.00278443
-0.00230718
-0.00171001
-0.00100473
-0.000204523
0.000676451
0.00162318
0.00261952
0.00364863
0.00469035
0.00572139
0.00671322
0.00763095
0.0084327
0.00907067
0.00950166
0.00964328
-0.00434921
-0.0043045
-0.00405816
-0.00366091
-0.00311626
-0.00243598
-0.00163398
-0.000725178
0.000275056
0.00135122
0.00248759
0.0036663
0.00486969
0.00607445
0.00725078
0.00835928
0.00934853
0.010155
0.0107126
0.0109101
-0.005495
-0.00544594
-0.00516182
-0.00470415
-0.00407841
-0.00329947
-0.00238424
-0.0013501
-0.000213986
0.00100816
0.00230116
0.00364921
0.00503699
0.00644389
0.00784147
0.00918825
0.0104232
0.0114633
0.0122042
0.0124967
-0.00686322
-0.00680696
-0.00647546
-0.00594242
-0.00521763
-0.00432032
-0.0032719
-0.00209332
-0.00080368
0.000580616
0.00204578
0.00358003
0.00517228
0.0068082
0.00846536
0.0101053
0.0116614
0.013031
0.0140437
0.0145089
-0.00850787
-0.00843464
-0.00804109
-0.00741051
-0.00656183
-0.00551985
-0.00431286
-0.0029672
-0.00150511
5.6653e-05
0.00170686
0.00343867
0.00524893
0.00713436
0.00908584
0.0110779
0.0130472
0.0148898
0.0163149
0.0171079
-0.0104898
-0.0103855
-0.00991207
-0.0091513
-0.00814286
-0.00691906
-0.00552006
-0.00397993
-0.00232476
-0.00057171
0.00127114
0.00320413
0.00523451
0.00737596
0.0096427
0.0120405
0.0145259
0.0170499
0.019096
0.0205806
-0.0130807
-0.0127912
-0.0121797
-0.0112219
-0.0099957
-0.00853566
-0.00689968
-0.00513116
-0.00326038
-0.00130436
0.000732644
0.00285924
0.00509373
0.00747358
0.0100444
0.0128734
0.0159533
0.0194314
0.0223656
0.0253611
-0.0157933
-0.0155966
-0.0148791
-0.0136696
-0.0121476
-0.010375
-0.00844313
-0.0064054
-0.00429501
-0.00212816
9.5773e-05
0.00239136
0.00479411
0.00735377
0.0101334
0.013327
0.0168699
0.0217093
0.0256846
0.0321385
-0.0218556
-0.0192701
-0.018308
-0.0165319
-0.0145651
-0.0123852
-0.0100909
-0.00774019
-0.0053697
-0.00299035
-0.000590262
0.00186254
0.00443197
0.00715402
0.0101408
0.0138461
0.0180804
0.0247638
0.0306953
0.0421844
-0.0253717
-0.024949
-0.0230846
-0.0206874
-0.0178797
-0.0148991
-0.0119855
-0.00918481
-0.00649176
-0.00388882
-0.00134701
0.00116059
0.00363035
0.00627147
0.00842733
0.0123333
0.0139679
0.0233714
0.0256102
0.0514677
-0.050416
-0.0262298
-0.0247543
-0.0216475
-0.0183768
-0.0153536
-0.0124515
-0.00962008
-0.00687961
-0.00423024
-0.00165256
0.000891048
0.00342372
0.00613279
0.00891669
0.0132077
0.0182694
0.0316504
0.0492
0.102212
2.95734e-06
2.57218e-05
0.000132248
0.00030382
0.000538346
0.000830649
0.00117405
0.00156058
0.00198105
0.00242518
0.00288175
0.00333878
0.00378377
0.00420401
0.00458692
0.00492048
0.00519372
0.00539732
0.00552592
0.00555777
-2.03415e-05
1.85153e-06
0.000109103
0.000281444
0.000517145
0.000811106
0.00115669
0.00154594
0.00196968
0.0024176
0.00287841
0.00334011
0.00379005
0.00421533
0.00460318
0.00494133
0.00521854
0.00542528
0.00555629
0.00558827
-0.000128966
-0.000107082
3.55903e-06
0.000181554
0.000425217
0.000729342
0.00108715
0.00149054
0.00193013
0.00239537
0.00287477
0.00335581
0.00382543
0.00427018
0.00467662
0.00503173
0.0053234
0.00554128
0.00567958
0.00571287
-0.000311505
-0.00028914
-0.000172621
1.50333e-05
0.000272182
0.000593427
0.00097175
0.00139876
0.00186473
0.00235875
0.00286879
0.00338186
0.00388409
0.00436115
0.00479849
0.00518183
0.0054977
0.00573431
0.00588489
0.00592133
-0.000572931
-0.000549633
-0.000424632
-0.000223103
5.33412e-05
0.000399016
0.000806543
0.00126712
0.00177056
0.00230541
0.00285901
0.00341764
0.00396642
0.00448977
0.00497165
0.00539593
0.00574709
0.00601122
0.00617996
0.00622139
-0.000919779
-0.000895215
-0.000758985
-0.000539134
-0.000237261
0.000140548
0.00058643
0.00109104
0.00164362
0.00223205
0.00284294
0.0034617
0.00407222
0.0046574
0.00519922
0.00567912
0.0060787
0.00638095
0.00657509
0.00662376
-0.00136046
-0.00133438
-0.00118398
-0.000941057
-0.000607204
-0.000189057
0.000304888
0.000864619
0.00147868
0.00213422
0.00281704
0.00351168
0.00420067
0.00486513
0.00548465
0.00603756
0.00650156
0.00685521
0.00708402
0.00714299
-0.00190576
-0.00187803
-0.00171025
-0.00143906
-0.0010661
-0.000598742
-4.63111e-05
0.000580358
0.00126901
0.00200605
0.00277647
0.00356403
0.00434995
0.00511348
0.0058315
0.00647847
0.00702696
0.00744926
0.00772517
0.00779886
-0.00256921
-0.00253982
-0.00235103
-0.00204577
-0.00162577
-0.00109944
-0.000477199
0.000229102
0.00100631
0.00184008
0.00271473
0.00361353
0.00451664
0.0054017
0.00624268
0.00700956
0.0076683
0.00818241
0.00852275
0.00861798
-0.00336764
-0.0033367
-0.00312269
-0.00277662
-0.00230052
-0.00170424
-0.000999687
-0.00020003
0.00068056
0.00162706
0.00262339
0.00365271
0.00469487
0.00572657
0.00671931
0.0076381
0.00844076
0.00907871
0.00950852
0.00963665
-0.00432204
-0.00428975
-0.0040454
-0.00365039
-0.00310743
-0.0024285
-0.00162757
-0.000719574
0.000280093
0.00135589
0.00249179
0.00367119
0.00487524
0.00608098
0.00725869
0.00836895
0.00936001
0.0101673
0.010724
0.0109055
-0.00545905
-0.00542538
-0.0051442
-0.00468989
-0.00406679
-0.00328994
-0.00237633
-0.0013434
-0.000208095
0.0010136
0.00230667
0.00365489
0.00504348
0.00645178
0.00785146
0.00920112
0.0104394
0.0114824
0.0122232
0.0124981
-0.00681348
-0.0067772
-0.00645064
-0.00592302
-0.00520255
-0.0043086
-0.00326267
-0.00208585
-0.000797367
0.00058631
0.0020514
0.0035859
0.00517917
0.00681705
0.00847723
0.0101217
0.0116838
0.0130604
0.014075
0.0145252
-0.00843572
-0.00839018
-0.00800565
-0.00738438
-0.00654307
-0.00550647
-0.00430324
-0.0029601
-0.00149961
6.12064e-05
0.001711
0.0034431
0.00525459
0.00714242
0.00909802
0.0110968
0.0130758
0.0149342
0.0163659
0.0171584
-0.0103703
-0.0103138
-0.00986033
-0.00911729
-0.00812189
-0.00690659
-0.00551291
-0.003976
-0.0023228
-0.000570974
0.00127117
0.00320383
0.00523543
0.00737922
0.00965025
0.0120566
0.0145559
0.0171126
0.0191746
0.0207104
-0.0129095
-0.0126793
-0.0121098
-0.0111843
-0.00998032
-0.0085322
-0.0069025
-0.00513692
-0.00326752
-0.00131236
0.000723458
0.00284755
0.0050835
0.00746378
0.0100343
0.0128689
0.0159556
0.0194928
0.0224437
0.0256457
-0.0154034
-0.0154162
-0.0147832
-0.013648
-0.0121633
-0.0104025
-0.00847301
-0.00643408
-0.0043219
-0.00215375
6.88487e-05
0.00235481
0.0047608
0.00731397
0.0100692
0.0132522
0.0167356
0.0216733
0.0256318
0.0326815
-0.0212097
-0.0188727
-0.0181851
-0.0165318
-0.0146382
-0.0124791
-0.0101837
-0.0078223
-0.00543997
-0.00305133
-0.000645021
0.00181572
0.00436252
0.00707097
0.00998556
0.0136528
0.0176778
0.0244021
0.0301317
0.0425602
-0.0239259
-0.0248898
-0.0233267
-0.0211742
-0.018367
-0.0152925
-0.0122851
-0.00941002
-0.00666463
-0.00403302
-0.00146933
0.0010427
0.00351258
0.00622135
0.00775586
0.0119929
0.0124785
0.0223081
0.0228595
0.052052
-0.0482643
-0.0251028
-0.0244682
-0.0218109
-0.0186452
-0.0156179
-0.0126894
-0.00981877
-0.00704331
-0.00437048
-0.00178359
0.000756696
0.00324408
0.00590492
0.00843874
0.0126202
0.0171286
0.0309114
0.0508621
0.108128
4.5613e-06
2.63161e-05
0.000132471
0.000303783
0.000538195
0.000830479
0.00117394
0.00156058
0.00198121
0.00242555
0.00288236
0.00333967
0.00378494
0.00420545
0.00458859
0.00492232
0.00519561
0.00539911
0.00552749
0.00555842
-1.79257e-05
3.24554e-06
0.000110143
0.000282178
0.000517685
0.00081153
0.00115705
0.00154629
0.00197006
0.00241806
0.00287898
0.00334082
0.0037909
0.00421633
0.0046043
0.00494253
0.00521972
0.00542629
0.00555708
0.0055881
-0.000126116
-0.00010528
5.00692e-06
0.000182655
0.00042608
0.000730044
0.00108775
0.00149108
0.00193066
0.00239593
0.00287538
0.00335652
0.00382625
0.00427112
0.00467766
0.00503281
0.00532445
0.00554214
0.00568018
0.00571244
-0.000308077
-0.000286832
-0.00017069
1.65784e-05
0.00027344
0.00059447
0.000972634
0.00139953
0.00186545
0.00235944
0.0028695
0.00338263
0.00388494
0.00436209
0.00479952
0.0051829
0.0054987
0.0057351
0.00588541
0.00592072
-0.000568815
-0.000546748
-0.000422167
-0.000221078
5.50235e-05
0.000400428
0.000807743
0.00126816
0.00177149
0.00230628
0.00285988
0.00341854
0.00396739
0.00449083
0.00497278
0.0053971
0.00574821
0.00601211
0.00618055
0.00622072
-0.000914802
-0.000891619
-0.000755873
-0.00053654
-0.000235084
0.000142385
0.000587989
0.00109239
0.00164481
0.00223314
0.002844
0.00346278
0.00407336
0.00465864
0.00520056
0.00568053
0.00608007
0.00638209
0.0065759
0.00662316
-0.00135436
-0.00132986
-0.00118004
-0.000937746
-0.000604416
-0.000186709
0.00030687
0.000866309
0.00148015
0.00213555
0.00281831
0.00351296
0.00420203
0.00486662
0.0054863
0.00603933
0.00650335
0.0068568
0.00708526
0.00714265
-0.00189817
-0.00187228
-0.00170521
-0.00143482
-0.00106254
-0.000595771
-4.38341e-05
0.000582435
0.00127079
0.00200762
0.00277795
0.00356551
0.00435154
0.00511526
0.00583353
0.00648073
0.00702935
0.00745153
0.00772713
0.00779903
-0.0025596
-0.0025324
-0.00234452
-0.00204031
-0.00162124
-0.00109572
-0.000474161
0.000231583
0.00100837
0.00184184
0.00271636
0.00361515
0.00451841
0.00540375
0.00624513
0.00701244
0.00767153
0.00818569
0.00852584
0.00861904
-0.00335522
-0.00332696
-0.00311419
-0.00276956
-0.00229476
-0.00169964
-0.000996056
-0.000197184
0.000682806
0.00162889
0.00262498
0.00365431
0.00469667
0.00572879
0.00672214
0.00764167
0.00844506
0.00908344
0.00951332
0.00963924
-0.00430562
-0.00427672
-0.00403415
-0.00364123
-0.00310019
-0.00242293
-0.00162339
-0.000716507
0.000282319
0.00135752
0.00249307
0.00367245
0.00487676
0.00608306
0.00726169
0.00837318
0.00936561
0.0101741
0.0107314
0.0109108
-0.00543682
-0.00540763
-0.00512917
-0.00467801
-0.00405779
-0.00328342
-0.00237182
-0.00134046
-0.000206306
0.00101463
0.00230734
0.00365531
0.0050441
0.0064531
0.00785406
0.00920565
0.0104464
0.0114918
0.0122344
0.0125075
-0.00678253
-0.00675253
-0.00643037
-0.00590771
-0.00519169
-0.00430142
-0.00325838
-0.00208373
-0.000796828
0.000585785
0.00205019
0.00358437
0.00517778
0.00681637
0.00847832
0.0101256
0.0116914
0.0130731
0.0140916
0.0145424
-0.00839145
-0.00835531
-0.00797824
-0.007365
-0.00653064
-0.0054995
-0.00430034
-0.00296008
-0.00150157
5.7912e-05
0.00170672
0.00343822
0.00524963
0.0071381
0.00909545
0.0110977
0.0130821
0.0149501
0.0163897
0.0171902
-0.0103034
-0.0102632
-0.00982313
-0.00909359
-0.00810915
-0.00690184
-0.0055136
-0.00398016
-0.00232919
-0.000578948
0.00126179
0.00319313
0.00522402
0.00736786
0.00964029
0.0120502
0.0145552
0.0171292
0.0192056
0.0207681
-0.0128131
-0.0126065
-0.0120609
-0.0111578
-0.00997071
-0.00853367
-0.00691054
-0.0051487
-0.00328152
-0.00132808
0.000705553
0.00282656
0.0050606
0.00743943
0.0100106
0.0128486
0.0159392
0.0195023
0.0224733
0.025745
-0.0152411
-0.0153143
-0.0147201
-0.0136238
-0.0121641
-0.0104176
-0.00849543
-0.00645967
-0.00434879
-0.00218174
3.76415e-05
0.00231566
0.00471721
0.0072638
0.0100174
0.0131992
0.0166595
0.0216446
0.0256205
0.0328405
-0.02095
-0.0187007
-0.0180953
-0.0165033
-0.0146504
-0.0125132
-0.0102277
-0.00786869
-0.00548566
-0.0030955
-0.00069102
0.00176531
0.00428965
0.00697181
0.00992893
0.0135799
0.0175449
0.0243145
0.0300662
0.0427226
-0.0234934
-0.0247377
-0.0232697
-0.0212247
-0.0184617
-0.0153949
-0.0123817
-0.00949601
-0.00674166
-0.00410103
-0.00153916
0.000961738
0.00338423
0.00597053
0.00763018
0.0119274
0.0120218
0.0220619
0.0223405
0.0522686
-0.0476824
-0.024751
-0.0243078
-0.0217994
-0.0186945
-0.015691
-0.0127693
-0.00989628
-0.00711635
-0.00444023
-0.00185781
0.000668734
0.00311989
0.00573503
0.00827373
0.0124247
0.016838
0.0308392
0.0513441
0.109507
6.07783e-06
2.7108e-05
0.000132929
0.000303984
0.000538248
0.00083049
0.00117398
0.00156072
0.00198149
0.00242601
0.00288302
0.00334055
0.00378605
0.00420678
0.00459011
0.00492397
0.00519729
0.00540068
0.00552884
0.00555909
-1.57543e-05
4.72561e-06
0.000111286
0.000283026
0.000518327
0.000812046
0.00115751
0.00154674
0.00197054
0.00241861
0.00287963
0.00334159
0.00379181
0.00421738
0.00460546
0.00494375
0.00522091
0.00542733
0.00555786
0.00558817
-0.000123464
-0.00010335
6.58066e-06
0.000183907
0.000427091
0.000730881
0.00108847
0.00149174
0.00193129
0.00239657
0.00287608
0.0033573
0.00382713
0.0042721
0.00467873
0.00503391
0.0053255
0.00554301
0.00568077
0.00571223
-0.000304851
-0.000284379
-0.000168626
1.82744e-05
0.000274845
0.000595649
0.000973642
0.00140042
0.00186626
0.00236022
0.00287029
0.00338347
0.00388585
0.00436308
0.00480057
0.00518397
0.00549972
0.00573591
0.00588591
0.00592037
-0.000564905
-0.000543683
-0.000419542
-0.000218882
5.68659e-05
0.00040198
0.000809062
0.0012693
0.00177251
0.00230722
0.0028608
0.00341949
0.00396839
0.0044919
0.00497393
0.00539828
0.00574932
0.00601301
0.00618111
0.00622034
-0.000910036
-0.000887799
-0.000752564
-0.000533744
-0.000232726
0.00014437
0.000589666
0.00109382
0.00164606
0.00223427
0.00284507
0.00346386
0.00407451
0.00465988
0.00520189
0.00568192
0.00608142
0.00638323
0.00657668
0.00662288
-0.00134848
-0.00132507
-0.00117586
-0.000934198
-0.000601427
-0.000184207
0.00030896
0.000868064
0.00148165
0.00213688
0.00281956
0.00351421
0.00420334
0.00486806
0.00548789
0.00604104
0.00650509
0.00685835
0.00708646
0.00714262
-0.00189082
-0.00186619
-0.00169989
-0.0014303
-0.00105876
-0.000592647
-4.12704e-05
0.000584541
0.00127254
0.00200914
0.00277934
0.0035669
0.00435302
0.00511693
0.00583543
0.00648287
0.00703163
0.00745371
0.007729
0.00779951
-0.00255024
-0.00252456
-0.00233768
-0.00203454
-0.00161648
-0.00109186
-0.000471076
0.000234035
0.00101033
0.00184348
0.00271782
0.0036166
0.00451999
0.00540561
0.00624737
0.00701511
0.00767455
0.00818879
0.00852873
0.00862038
-0.00334309
-0.00331672
-0.00310529
-0.00276217
-0.00228879
-0.00169494
-0.000992439
-0.000194448
0.000684873
0.0016305
0.00262634
0.00365563
0.00469818
0.00573069
0.00672464
0.00764491
0.00844901
0.00908784
0.00951777
0.00964209
-0.0042896
-0.00426313
-0.00402249
-0.00363174
-0.00309275
-0.00241732
-0.00161931
-0.000713657
0.000284252
0.00135883
0.00249402
0.00367332
0.00487783
0.0060847
0.00726424
0.00837689
0.00937065
0.0101803
0.0107382
0.0109161
-0.0054152
-0.0053893
-0.00511374
-0.00466583
-0.00404866
-0.00327694
-0.00236753
-0.00133785
-0.000204949
0.00101512
0.00230729
0.00365506
0.00504406
0.00645379
0.00785606
0.00920945
0.0104525
0.0115003
0.0122446
0.0125172
-0.00675266
-0.0067274
-0.00640982
-0.00589217
-0.00518077
-0.00429439
-0.00325442
-0.00208208
-0.000796851
0.000584527
0.00204814
0.00358189
0.00517541
0.00681481
0.00847837
0.0101283
0.0116979
0.0130843
0.0141065
0.0145595
-0.00834915
-0.00832032
-0.0079508
-0.00734552
-0.00651822
-0.00549275
-0.00429785
-0.00296068
-0.0015044
5.34436e-05
0.00170106
0.00343174
0.00524288
0.00713192
0.00909111
0.0110969
0.0130868
0.0149634
0.0164107
0.0172197
-0.0102412
-0.0102136
-0.0097865
-0.00906994
-0.00809638
-0.00689723
-0.00551469
-0.00398518
-0.00233694
-0.000588725
0.00125031
0.00318003
0.00520978
0.00735339
0.00962734
0.0120411
0.0145531
0.0171418
0.0192319
0.0208198
-0.0127245
-0.0125362
-0.012013
-0.0111311
-0.0099606
-0.0085349
-0.00691893
-0.00516154
-0.00329723
-0.00134607
0.00068507
0.00280254
0.00503391
0.00741068
0.00998244
0.0128232
0.0159184
0.0195055
0.0224976
0.0258325
-0.0150982
-0.015215
-0.0146587
-0.0135976
-0.0121629
-0.0104309
-0.0085166
-0.00648493
-0.00437638
-0.00221151
3.77683e-06
0.00226873
0.00466994
0.00721054
0.00996402
0.013143
0.0165863
0.0216105
0.0256083
0.0329795
-0.0207368
-0.0185504
-0.0180148
-0.016476
-0.0146615
-0.0125444
-0.0102681
-0.007912
-0.00552944
-0.00314009
-0.000738258
0.0017177
0.00421934
0.00688077
0.0098726
0.0135085
0.017433
0.0242405
0.0300201
0.0429033
-0.023187
-0.0245923
-0.0232075
-0.0212463
-0.0185268
-0.015473
-0.0124599
-0.00956885
-0.00680877
-0.00416602
-0.00160715
0.000879477
0.00326124
0.00575665
0.00752953
0.0118306
0.0116667
0.021839
0.0219922
0.0525191
-0.047211
-0.0244237
-0.0241439
-0.0217608
-0.0187299
-0.015756
-0.0128434
-0.00997017
-0.00718696
-0.00450936
-0.00193106
0.000583114
0.00300739
0.00559301
0.008147
0.0122737
0.0166141
0.0307342
0.0514965
0.110398
7.52298e-06
2.82886e-05
0.000133916
0.000304788
0.000538914
0.000831056
0.00117449
0.0015612
0.001982
0.00242657
0.00288367
0.0033413
0.00378691
0.00420775
0.00459116
0.00492507
0.00519838
0.00540169
0.00552973
0.00555975
-1.40112e-05
6.18604e-06
0.000112534
0.000284065
0.000519197
0.000812786
0.00115816
0.00154734
0.00197113
0.00241921
0.00288028
0.00334231
0.00379261
0.00421826
0.0046064
0.00494471
0.00522185
0.00542818
0.00555858
0.00558866
-0.00012138
-0.000101565
8.13521e-06
0.000185225
0.000428205
0.00073183
0.0010893
0.00149247
0.00193198
0.00239725
0.00287678
0.00335804
0.00382793
0.00427296
0.00467963
0.00503484
0.00532638
0.00554379
0.00568142
0.00571268
-0.000302307
-0.00028216
-0.000166668
1.99555e-05
0.000276277
0.000596869
0.000974689
0.00140133
0.00186708
0.002361
0.00287106
0.00338425
0.00388667
0.00436396
0.00480149
0.0051849
0.00550061
0.0057367
0.00588655
0.00592078
-0.000561775
-0.00054092
-0.000417083
-0.000216755
5.86839e-05
0.000403525
0.000810374
0.00127043
0.0017735
0.00230812
0.00286165
0.00342034
0.00396927
0.00449284
0.00497491
0.00539929
0.0057503
0.00601389
0.00618185
0.00622082
-0.000906154
-0.00088434
-0.000749473
-0.000531063
-0.000230439
0.0001463
0.000591285
0.00109518
0.00164722
0.0022353
0.00284603
0.0034648
0.00407547
0.00466091
0.00520299
0.00568307
0.00608258
0.00638431
0.00657762
0.00662354
-0.00134362
-0.00132071
-0.00117196
-0.00093082
-0.000598564
-0.000181819
0.000310928
0.000869681
0.00148299
0.00213803
0.00282059
0.0035152
0.00420438
0.00486919
0.00548913
0.00604241
0.00650651
0.00685975
0.00708775
0.00714362
-0.00188466
-0.00186065
-0.00169493
-0.00142604
-0.00105519
-0.00058972
-3.89172e-05
0.000586411
0.00127403
0.00201035
0.00278039
0.00356789
0.00435406
0.00511811
0.00583682
0.00648448
0.00703343
0.00745557
0.0077308
0.00780096
-0.00254234
-0.00251743
-0.00233134
-0.00202915
-0.00161203
-0.00108831
-0.000468323
0.00023612
0.00101189
0.00184465
0.00271874
0.00361744
0.0045209
0.00540673
0.00624883
0.00701696
0.00767679
0.00819129
0.00853132
0.00862266
-0.00333282
-0.00330745
-0.00309713
-0.00275534
-0.0022833
-0.00169071
-0.000989315
-0.000192253
0.000686329
0.00163141
0.0026269
0.00365608
0.00469871
0.00573152
0.00672598
0.00764691
0.00845174
0.00909117
0.00952148
0.00964556
-0.00427607
-0.00425095
-0.00401192
-0.00362308
-0.00308602
-0.00241238
-0.00161593
-0.000711569
0.000285318
0.00135914
0.00249382
0.00367294
0.00487754
0.00608479
0.00726504
0.00837877
0.00937378
0.0101846
0.0107434
0.0109214
-0.0053971
-0.00537312
-0.00509997
-0.00465488
-0.00404054
-0.00327139
-0.00236416
-0.00133627
-0.000204752
0.0010143
0.00230583
0.00365326
0.0050423
0.00645247
0.00785567
0.00921059
0.0104557
0.0115058
0.0122519
0.0125254
-0.00672813
-0.0067057
-0.00639183
-0.00587845
-0.00517121
-0.00428849
-0.00325157
-0.00208165
-0.000798259
0.000581818
0.00204455
0.00357776
0.00517114
0.00681097
0.00847569
0.0101277
0.0117003
0.0130907
0.0141165
0.014572
-0.00831545
-0.00829098
-0.00792728
-0.00732854
-0.00650739
-0.00548713
-0.00429641
-0.00296242
-0.00150846
4.77072e-05
0.00169411
0.00342394
0.00523453
0.00712375
0.00908421
0.0110926
0.0130868
0.01497
0.0164236
0.0172389
-0.0101943
-0.0101737
-0.00975587
-0.00904939
-0.00808488
-0.00689305
-0.00551606
-0.00399055
-0.00234516
-0.000599017
0.00123855
0.00316718
0.00519524
0.00733824
0.00961322
0.01203
0.0145474
0.0171462
0.0192472
0.0208493
-0.0126604
-0.0124821
-0.0119737
-0.0111071
-0.00994969
-0.00853392
-0.00692511
-0.00517256
-0.00331158
-0.00136276
0.000667013
0.00278484
0.00501065
0.00738485
0.00995693
0.0128006
0.0159012
0.019504
0.0225123
0.0258772
-0.0150065
-0.0151426
-0.0146087
-0.0135706
-0.0121543
-0.0104355
-0.00853015
-0.0065041
-0.00439916
-0.00223687
-2.22813e-05
0.00225532
0.0046346
0.00716895
0.00992082
0.0131009
0.0165411
0.0215906
0.0256095
0.0330444
-0.0206096
-0.0184506
-0.0179506
-0.016444
-0.0146548
-0.0125559
-0.0102909
-0.00794116
-0.00556238
-0.00317664
-0.000781417
0.00165229
0.00416485
0.0068235
0.00982033
0.0134569
0.0173746
0.02421
0.0300208
0.0429911
-0.0230281
-0.0244827
-0.0231377
-0.0212201
-0.0185334
-0.0154992
-0.0124969
-0.00961072
-0.00685313
-0.00421343
-0.00166075
0.000812798
0.00318144
0.00567164
0.00742239
0.011752
0.0115046
0.0217442
0.0218953
0.0526212
-0.0469848
-0.0242461
-0.0240358
-0.0217148
-0.0187261
-0.0157776
-0.0128794
-0.0100132
-0.00723357
-0.00455953
-0.00198719
0.000517318
0.00292923
0.00550646
0.00805679
0.0121817
0.0165076
0.0306926
0.0515517
0.110689
8.83133e-06
2.94523e-05
0.000134935
0.000305658
0.000539656
0.000831699
0.00117506
0.00156174
0.00198253
0.00242712
0.00288426
0.00334194
0.00378762
0.00420852
0.00459199
0.00492592
0.00519922
0.00540247
0.00553044
0.00556035
-1.25261e-05
7.52723e-06
0.000113725
0.000285095
0.000520082
0.000813553
0.00115883
0.00154795
0.00197171
0.0024198
0.00288088
0.00334295
0.0037933
0.004219
0.00460718
0.0049455
0.00522262
0.00542889
0.00555921
0.00558916
-0.000119627
-9.9966e-05
9.5695e-06
0.000186478
0.000429288
0.000732766
0.00109011
0.0014932
0.00193265
0.00239789
0.00287742
0.0033587
0.00382862
0.0042737
0.0046804
0.00503561
0.00532713
0.00554448
0.00568202
0.00571313
-0.000300178
-0.000280202
-0.000164898
2.15117e-05
0.000277625
0.000598029
0.000975688
0.0014022
0.00186786
0.00236172
0.00287175
0.00338494
0.00388739
0.0043647
0.00480227
0.00518569
0.00550137
0.0057374
0.00588717
0.00592124
-0.000559152
-0.000538491
-0.000414879
-0.000214813
6.03626e-05
0.000404959
0.000811593
0.00127147
0.0017744
0.00230893
0.0028624
0.00342108
0.00397002
0.00449363
0.00497574
0.00540014
0.00575114
0.00601467
0.00618254
0.00622135
-0.000902889
-0.000881305
-0.000746716
-0.000528637
-0.000228353
0.000148063
0.000592758
0.00109641
0.00164825
0.00223619
0.00284683
0.00346557
0.00407626
0.00466174
0.00520389
0.00568402
0.00608355
0.00638525
0.00657849
0.00662424
-0.00133952
-0.00131688
-0.00116849
-0.000927783
-0.000595977
-0.000179666
0.000312688
0.000871103
0.00148414
0.00213898
0.00282142
0.00351598
0.00420517
0.00487005
0.00549011
0.00604349
0.00650768
0.00686093
0.0070889
0.00714459
-0.00187945
-0.00185579
-0.00169055
-0.00142223
-0.00105199
-0.000587115
-3.68506e-05
0.000588014
0.00127526
0.0020113
0.00278117
0.0035686
0.0043548
0.00511896
0.00583784
0.0064857
0.00703483
0.0074571
0.00773236
0.00780239
-0.00253566
-0.00251121
-0.00232576
-0.00202437
-0.0016081
-0.0010852
-0.000465951
0.000237853
0.00101311
0.00184549
0.00271934
0.00361794
0.00452144
0.00540744
0.00624981
0.00701829
0.00767846
0.00819326
0.00853345
0.0086247
-0.00332417
-0.00329941
-0.00309001
-0.00274933
-0.00227848
-0.00168704
-0.00098668
-0.000190497
0.000687381
0.00163194
0.00262709
0.00365612
0.0046988
0.00573185
0.00672673
0.00764822
0.00845366
0.00909367
0.00952439
0.0096485
-0.00426476
-0.0042405
-0.00400277
-0.00361554
-0.00308018
-0.00240816
-0.00161315
-0.000709987
0.000285943
0.00135904
0.00249323
0.00367215
0.0048768
0.00608436
0.00726521
0.00837979
0.00937584
0.0101877
0.0107474
0.0109256
-0.00538218
-0.00535943
-0.00508821
-0.00464547
-0.00403356
-0.00326669
-0.00236144
-0.00133519
-0.00020496
0.00101314
0.00230401
0.00365108
0.00504009
0.00645062
0.00785462
0.00921081
0.0104575
0.0115096
0.0122572
0.0125315
-0.00670825
-0.00668767
-0.00637669
-0.00586678
-0.00516304
-0.00428352
-0.00324932
-0.00208159
-0.0007999
0.000578902
0.00204076
0.00357338
0.00516658
0.00680674
0.00847244
0.0101262
0.0117013
0.0130947
0.0141233
0.0145807
-0.00828882
-0.00826715
-0.00790784
-0.00731422
-0.00649811
-0.00548231
-0.00429525
-0.00296414
-0.00151239
4.21342e-05
0.00168736
0.00341634
0.0052264
0.00711574
0.00907724
0.0110878
0.0130854
0.0149735
0.016432
0.0172515
-0.0101584
-0.0101422
-0.009731
-0.00903211
-0.0080748
-0.00688908
-0.00551694
-0.00399511
-0.00235247
-0.000608356
0.00122772
0.00315523
0.00518203
0.00732457
0.00960039
0.0120197
0.0145415
0.0171479
0.0192565
0.0208676
-0.0126127
-0.0124407
-0.0119422
-0.0110867
-0.00993942
-0.00853186
-0.00692925
-0.00518123
-0.00332353
-0.00137712
0.000650984
0.00276776
0.0049906
0.00736316
0.00993548
0.0127818
0.0158872
0.0195011
0.0225209
0.0259038
-0.0149417
-0.0150885
-0.0145693
-0.0135471
-0.0121447
-0.0104366
-0.00853893
-0.00651822
-0.00441711
-0.0022577
-4.51471e-05
0.00223235
0.00460546
0.00713655
0.00988697
0.0130684
0.0165099
0.0215759
0.0256102
0.0330818
-0.0205241
-0.0183798
-0.0179015
-0.0164167
-0.0146463
-0.012561
-0.0103053
-0.00796162
-0.00558707
-0.00320504
-0.000814385
0.00161218
0.00412519
0.00678215
0.00977931
0.0134169
0.0173352
0.0241892
0.0300209
0.0430425
-0.0229262
-0.0244024
-0.0230817
-0.0211932
-0.0185296
-0.015511
-0.0125186
-0.00963835
-0.00688476
-0.00424856
-0.00170101
0.000765383
0.00312496
0.00561207
0.00735072
0.0116904
0.0114088
0.0216849
0.0218469
0.0526773
-0.0468439
-0.0241278
-0.0239574
-0.0216744
-0.018716
-0.0157875
-0.0129016
-0.0100424
-0.00726735
-0.00459723
-0.00202971
0.000468689
0.00287424
0.00544776
0.00799337
0.0121182
0.0164395
0.0306589
0.0515557
0.110819
9.95859e-06
3.05066e-05
0.000135894
0.00030651
0.000540405
0.000832358
0.00117565
0.00156228
0.00198304
0.00242762
0.00288477
0.00334248
0.00378819
0.00420912
0.00459261
0.00492655
0.00519985
0.00540307
0.00553099
0.00556085
-1.1289e-05
8.68865e-06
0.000114785
0.000286039
0.000520912
0.000814281
0.00115948
0.00154854
0.00197226
0.00242032
0.0028814
0.00334349
0.00379387
0.00421959
0.00460779
0.00494612
0.00522323
0.00542946
0.00555974
0.00558964
-0.000118189
-9.86104e-05
1.08116e-05
0.000187587
0.000430262
0.000733616
0.00109086
0.00149386
0.00193325
0.00239845
0.00287797
0.00335925
0.00382919
0.00427429
0.00468101
0.00503623
0.00532774
0.00554505
0.00568255
0.00571361
-0.000298443
-0.000278561
-0.000163391
2.28584e-05
0.000278806
0.000599052
0.000976572
0.00140297
0.00186854
0.00236233
0.00287234
0.00338552
0.00388798
0.00436531
0.00480289
0.00518633
0.005502
0.005738
0.00588773
0.00592174
-0.000557018
-0.000536468
-0.00041302
-0.000213154
6.18098e-05
0.000406201
0.000812649
0.00127236
0.00177517
0.00230961
0.00286303
0.00342168
0.00397063
0.00449425
0.00497639
0.00540081
0.00575182
0.00601534
0.00618318
0.00622193
-0.000900232
-0.000878782
-0.0007444
-0.00052658
-0.000226573
0.00014957
0.000594014
0.00109744
0.00164912
0.00223693
0.00284748
0.00346618
0.00407687
0.00466238
0.00520458
0.00568476
0.00608433
0.00638604
0.00657926
0.00662496
-0.00133618
-0.00131371
-0.00116559
-0.000925223
-0.000593788
-0.000177845
0.000314167
0.000872284
0.00148508
0.00213973
0.00282205
0.00351656
0.00420576
0.00487068
0.00549082
0.0060443
0.00650858
0.00686189
0.00708987
0.00714553
-0.00187521
-0.00185177
-0.00168689
-0.00141904
-0.00104931
-0.000584934
-3.51377e-05
0.000589318
0.00127623
0.00201202
0.00278171
0.00356907
0.00435527
0.00511951
0.00583853
0.00648657
0.00703587
0.00745827
0.00773363
0.00780364
-0.00253024
-0.00250608
-0.00232114
-0.00202039
-0.00160482
-0.00108261
-0.000464012
0.00023923
0.00101402
0.00184605
0.00271967
0.00361816
0.00452167
0.00540778
0.00625036
0.00701914
0.00767963
0.0081947
0.00853509
0.00862638
-0.00331719
-0.00329284
-0.00308414
-0.00274437
-0.0022745
-0.00168402
-0.000984557
-0.000189145
0.000688104
0.00163218
0.002627
0.00365588
0.00469857
0.00573179
0.00672698
0.00764892
0.0084549
0.0090954
0.00952651
0.00965077
-0.00425571
-0.00423203
-0.00399532
-0.00360937
-0.00307539
-0.00240472
-0.00161093
-0.000708826
0.000286251
0.0013587
0.00249244
0.00367114
0.00487577
0.00608355
0.00726485
0.0083801
0.00937696