/*--------------------------------*- C++ -*----------------------------------*\
  =========                 |
  \\      /  F ield         | OpenFOAM: The Open Source CFD Toolbox
   \\    /   O peration     | Website:  https://openfoam.org
    \\  /    A nd           | Version:  10
     \\/     M anipulation  |
\*---------------------------------------------------------------------------*/
FoamFile
{
    format      ascii;
    class       surfaceScalarField;
    location    "9.25";
    object      phi;
}
// * * * * * * * * * * * * * * * * * * * * * * * * * * * * * * * * * * * * * //

dimensions      [0 3 -1 0 0 0 0];

internalField   nonuniform List<scalar> 
760
(
-1.37536e-05
1.37536e-05
-4.44529e-05
3.06993e-05
-8.14928e-05
3.70399e-05
-0.000120778
3.92848e-05
-0.000161108
4.03309e-05
-0.000202225
4.11166e-05
-0.000243853
4.16283e-05
-0.000285315
4.14612e-05
-0.000325314
3.99997e-05
-0.000361749
3.64353e-05
-0.000391551
2.98016e-05
-0.000410627
1.90755e-05
-0.000414041
3.41458e-06
-0.000396479
-1.75624e-05
-0.000353911
-4.25679e-05
-0.000285703
-6.82074e-05
-0.000197619
-8.80845e-05
-0.000104068
-9.35512e-05
-2.77615e-05
-7.63062e-05
-2.77615e-05
-3.34335e-05
4.71871e-05
-9.42995e-05
9.15653e-05
-0.000165658
0.000108398
-0.00024071
0.000114337
-0.000316929
0.00011655
-0.00039319
0.000117377
-0.000468408
0.000116847
-0.000540943
0.000113996
-0.000608264
0.00010732
-0.000666697
9.48686e-05
-0.000711258
7.43625e-05
-0.000735522
4.33397e-05
-0.000732764
6.56163e-07
-0.000695057
-5.52696e-05
-0.000617103
-0.000120521
-0.000498566
-0.000186744
-0.000348516
-0.000238135
-0.000189638
-0.000252429
-5.76746e-05
-0.00020827
-8.54361e-05
-4.26672e-05
8.98543e-05
-0.000117984
0.000166882
-0.000205352
0.000195766
-0.000296595
0.00020558
-0.000388684
0.000208639
-0.000480233
0.000208926
-0.000569954
0.000206569
-0.000656015
0.000200057
-0.000735671
0.000186976
-0.00080496
0.000164158
-0.000858424
0.000127826
-0.000889136
7.40518e-05
-0.000888565
8.56846e-08
-0.000846712
-9.71234e-05
-0.000755611
-0.000211622
-0.000612341
-0.000330015
-0.000426121
-0.000424354
-0.000226669
-0.000451882
-6.48185e-05
-0.00037012
-0.000150255
-4.62542e-05
0.000136108
-0.000127865
0.000248493
-0.000222249
0.000290151
-0.000320647
0.000303978
-0.000420028
0.000308019
-0.000519198
0.000308096
-0.000617168
0.000304538
-0.000712488
0.000295377
-0.000802857
0.000277345
-0.000884712
0.000246013
-0.000952722
0.000195836
-0.000999247
0.000120577
-0.00101402
1.48613e-05
-0.000983874
-0.000127273
-0.000894178
-0.000301317
-0.000734563
-0.000489631
-0.000509574
-0.000649342
-0.000258339
-0.000703117
-6.24717e-05
-0.000565988
-0.000212726
-4.70208e-05
0.000183129
-0.000130892
0.000332364
-0.000228147
0.000387406
-0.000329846
0.000405677
-0.000433212
0.000411385
-0.000537539
0.000412423
-0.000642507
0.000409506
-0.000747516
0.000400386
-0.000851247
0.000381076
-0.00095112
0.000345886
-0.00104251
0.000287226
-0.00111761
0.000195681
-0.00116405
6.12926e-05
-0.0011643
-0.000127016
-0.00109353
-0.00037209
-0.000925764
-0.000657396
-0.000649876
-0.000925231
-0.000312306
-0.00104069
-5.76053e-05
-0.000820689
-0.000270332
-4.64383e-05
0.000229568
-0.000130615
0.00041654
-0.000228818
0.000485609
-0.000332092
0.000508951
-0.000438031
0.000517324
-0.000546615
0.000521007
-0.000658486
0.000521377
-0.000774314
0.000516214
-0.000894367
0.000501129
-0.0010179
0.000469415
-0.0011421
0.00041143
-0.0012605
0.000314084
-0.00136036
0.000161146
-0.0014213
-6.60696e-05
-0.00140397
-0.000389418
-0.00125273
-0.000808636
-0.000915128
-0.00126284
-0.000434454
-0.00152136
-6.48158e-05
-0.00119033
-0.000335147
-4.51043e-05
0.000274672
-0.000128493
0.000499929
-0.000226498
0.000583615
-0.000330182
0.000612635
-0.000437535
0.000624678
-0.000549315
0.000632787
-0.000667359
0.00063942
-0.00079402
0.000642875
-0.000931866
0.000638976
-0.00108322
0.000620765
-0.00124918
0.00057739
-0.00142799
0.000492895
-0.0016117
0.00034486
-0.00178049
0.000102717
-0.00188025
-0.000289652
-0.00179897
-0.00088992
-0.00140213
-0.00165968
-0.000720956
-0.00220253
-0.000136606
-0.00177468
-0.000471753
-4.32069e-05
0.000317879
-0.000124988
0.00058171
-0.000221781
0.000680408
-0.000324576
0.000715429
-0.000431704
0.000731806
-0.000544695
0.000745778
-0.000666658
0.000761383
-0.000801929
0.000778146
-0.000956115
0.000793162
-0.00113607
0.000800721
-0.00134963
0.000790952
-0.00160508
0.000748341
-0.0019082
0.000647983
-0.0022441
0.000438617
-0.002544
1.02462e-05
-0.0025922
-0.000841719
-0.00216299
-0.00208889
-0.00130123
-0.00306429
-0.000394506
-0.0026814
-0.00086626
-4.08545e-05
0.000358733
-0.000120327
0.000661182
-0.000214823
0.000774905
-0.000315078
0.000815684
-0.000419604
0.000836332
-0.000530563
0.000856736
-0.000652218
0.000883039
-0.000790847
0.000916775
-0.00095533
0.000957645
-0.00115823
0.00100362
-0.00141738
0.0010501
-0.00175685
0.00108781
-0.00220175
0.00109289
-0.00274176
0.000978623
-0.00324149
0.000509977
-0.00343266
-0.000650551
-0.00305952
-0.00246203
-0.00218437
-0.00393944
-0.000943345
-0.00392242
-0.0018096
-3.82805e-05
0.000397014
-0.00011497
0.000737872
-0.000206079
0.000866014
-0.000301843
0.000911448
-0.000400691
0.000935181
-0.000505127
0.000961172
-0.000620159
0.00099807
-0.000753448
0.00105006
-0.000916505
0.0011207
-0.00112692
0.00121404
-0.0014118
0.00133497
-0.0018087
0.00148472
-0.00234988
0.00163407
-0.00300854
0.00163728
-0.00360323
0.00110467
-0.00385457
-0.000399214
-0.00365492
-0.00266167
-0.00298358
-0.00461079
-0.00161812
-0.00528787
-0.00342773
-3.59701e-05
0.000432984
-0.000109905
0.000811806
-0.00019675
0.000952859
-0.000285974
0.00100067
-0.000375638
0.00102484
-0.000468145
0.00105368
-0.000568471
0.0010984
-0.000684343
0.00116594
-0.000827659
0.00126402
-0.00101702
0.0014034
-0.00128081
0.00159877
-0.00165516
0.00185906
-0.0021577
0.00213661
-0.00272976
0.00220935
-0.00321539
0.00159029
-0.00343949
-0.000175118
-0.00341293
-0.00268824
-0.00301879
-0.00500493
-0.00189991
-0.00640675
-0.00532764
-3.49083e-05
0.000467892
-0.000107082
0.00088398
-0.000189249
0.00103503
-0.000269981
0.0010814
-0.000346923
0.00110179
-0.000421957
0.00112871
-0.00049905
0.00117549
-0.00058409
0.00125098
-0.000685735
0.00136566
-0.000816559
0.00153422
-0.000993363
0.00177557
-0.00123177
0.00209747
-0.00152959
0.00243442
-0.00183512
0.00251488
-0.00208974
0.00184491
-0.00224872
-1.61369e-05
-0.00236098
-0.00257597
-0.00231535
-0.00505056
-0.00165081
-0.0070713
-0.00697845
-3.62457e-05
0.000504138
-0.000108877
0.000956611
-0.000186977
0.00111313
-0.0002582
0.00115263
-0.000319675
0.00116326
-0.000372604
0.00118164
-0.000419474
0.00122236
-0.000463006
0.00129451
-0.000506272
0.00140893
-0.000552024
0.00157997
-0.000601271
0.00182482
-0.000647777
0.00214398
-0.000684557
0.0024712
-0.000698912
0.00252924
-0.000732312
0.00187831
-0.00084524
9.67914e-05
-0.00110185
-0.00231936
-0.00140148
-0.00475093
-0.00119092
-0.00728185
-0.00816938
-4.40963e-05
0.000548234
-0.000121988
0.0010345
-0.000196255
0.00118739
-0.000255572
0.00121194
-0.000298889
0.00120658
-0.000327267
0.00121002
-0.000341101
0.00123619
-0.000339946
0.00129335
-0.000321543
0.00139053
-0.000279782
0.00153821
-0.000202694
0.00174773
-7.19128e-05
0.0020132
0.000120698
0.00227859
0.000332767
0.00231717
0.000464549
0.00174653
0.00035588
0.00020546
-3.62722e-05
-0.00192721
-0.000656999
-0.0041302
-0.000824272
-0.00711458
-0.00899365
-5.47927e-05
0.000603027
-0.000142278
0.00112199
-0.000218203
0.00126332
-0.000271541
0.00126528
-0.000298956
0.00123399
-0.000302451
0.00121352
-0.000282707
0.00121645
-0.000237847
0.00124849
-0.000162655
0.00131534
-4.62987e-05
0.00142186
0.000126308
0.00157512
0.00037462
0.00176489
0.000709584
0.00194363
0.00107646
0.00195029
0.00131363
0.00150936
0.00120903
0.000310062
0.000697746
-0.00141592
-0.000115906
-0.00331655
-0.000527243
-0.00670324
-0.00952089
-0.000122609
0.000725635
-0.000224247
0.00122363
-0.000283485
0.00132256
-0.00030844
0.00129024
-0.000307821
0.00123337
-0.000284587
0.00119028
-0.000236513
0.00116838
-0.000158307
0.00117029
-4.24189e-05
0.00119945
0.000122586
0.00125685
0.000350719
0.00134699
0.00065894
0.00145667
0.00104723
0.00155534
0.00146248
0.00153503
0.00174519
0.00122665
0.00166388
0.000391368
0.00112441
-0.000876444
0.000231142
-0.00242329
-0.000297599
-0.0061745
-0.00981849
-7.89778e-05
0.000804613
-0.000247025
0.00139167
-0.000345222
0.00142075
-0.000380651
0.00132567
-0.000371343
0.00122407
-0.00032784
0.00114678
-0.000252458
0.00109299
-0.000141961
0.00105979
9.84893e-06
0.00104764
0.000211767
0.00105493
0.000474746
0.00108401
0.000808241
0.00112317
0.00120232
0.00116126
0.00161072
0.00112664
0.00189766
0.000939707
0.00184206
0.000446974
0.00136858
-0.00040297
0.000586742
-0.00164144
7.56276e-05
-0.00566339
-0.00974286
-0.000375554
0.00118017
-0.000423157
0.00143928
-0.000456875
0.00145447
-0.000477319
0.00134611
-0.000449488
0.00119623
-0.00037981
0.0010771
-0.000271374
0.000984557
-0.000121922
0.000910336
6.79696e-05
0.000857746
0.000304739
0.000818163
0.00058927
0.000799478
0.000926106
0.000786335
0.00130048
0.000786886
0.00166618
0.000760942
0.00195066
0.000655225
0.00199574
0.00040189
0.00183857
-0.000245792
0.00147829
-0.00128117
0.00083634
-0.00502143
-0.00890652
-0.00136299
0.00254316
-0.001322
0.00139828
-0.00105549
0.00118796
-0.000675968
0.000966593
-0.000276756
0.000797022
0.000126343
0.000674002
0.000522768
0.000588132
0.000912645
0.000520459
0.00129778
0.000472614
0.00168403
0.000431906
0.00207738
0.000406129
0.00248104
0.000382679
0.00290407
0.000363853
0.00333049
0.000334519
0.00373098
0.000254743
0.00401262
0.000120246
0.00409013
-0.000323298
0.0039471
-0.00113814
0.0025058
-0.00358013
-0.00640073
0.00254316
0.00394144
0.0051294
0.00609599
0.00689302
0.00756702
0.00815515
0.00867561
0.00914822
0.00958013
0.00998626
0.0103689
0.0107328
0.0110673
0.0113221
0.0114423
0.011119
0.00998086
0.00640073
)
;

boundaryField
{
    movingWall
    {
        type            calculated;
        value           uniform 0;
    }
    fixedWalls
    {
        type            calculated;
        value           uniform 0;
    }
    frontAndBack
    {
        type            empty;
        value           nonuniform List<scalar> 0();
    }
}


// ************************************************************************* //
