/*--------------------------------*- C++ -*----------------------------------*\
  =========                 |
  \\      /  F ield         | OpenFOAM: The Open Source CFD Toolbox
   \\    /   O peration     | Website:  https://openfoam.org
    \\  /    A nd           | Version:  10
     \\/     M anipulation  |
\*---------------------------------------------------------------------------*/
FoamFile
{
    format      ascii;
    class       volScalarField;
    location    "2.775";
    object      p;
}
// * * * * * * * * * * * * * * * * * * * * * * * * * * * * * * * * * * * * * //

dimensions      [0 2 -2 0 0 0 0];

internalField   nonuniform List<scalar> 
496
(
22.3953
22.8518
19.2826
13.2008
22.7534
23.8083
19.4553
13.106
27.6879
25.4733
16.0743
5.19338
36.2825
32.5703
28.8062
11.1675
4.34954
-4.7191
4.03738
-4.46977
-11.177
-15.1973
-41.4237
-69.4039
-11.7964
-16.0915
-17.1361
-16.4579
-11.9013
-17.6302
-21.115
-21.3164
-8.27051
-8.51503
-12.9667
-17.2548
-34.5159
-20.8611
-15.4196
-20.0541
-14.7073
-12.5881
-10.9249
-11.1078
-12.5151
-13.9967
-14.8948
-14.9271
-14.3138
-13.3483
-12.6627
-11.8564
-10.9718
-10.2599
-9.44342
-8.74272
-8.17787
-7.95144
-7.56939
-7.01699
-6.51261
-5.64048
-4.5413
-3.19483
-2.13403
-1.28525
-0.754616
-0.756754
-0.788406
-1.30598
-1.6692
-2.2534
-2.55616
-2.48268
-2.44333
-2.2376
-2.22624
-1.80318
-1.04168
-0.245325
-18.3423
-14.0586
-11.1394
-11.3242
-12.8729
-14.3172
-15.0507
-14.9909
-14.6874
-13.9445
-13.0279
-11.813
-10.7121
-9.6587
-8.66995
-8.15121
-8.00677
-8.04833
-7.68331
-7.10102
-6.51964
-5.65751
-4.54729
-3.06383
-1.59532
-0.84182
-0.324273
-0.420954
-0.669433
-1.27672
-1.84885
-2.63298
-2.79587
-2.73486
-2.59511
-2.48454
-2.33143
-1.81988
-0.807028
0.0955113
-15.7726
-12.0995
-10.7817
-11.2244
-12.5262
-14.5836
-16.0754
-16.2969
-15.7353
-14.9742
-13.6207
-12.1017
-10.8943
-9.74034
-8.74276
-8.47773
-8.79723
-9.02039
-8.78126
-8.18289
-7.05842
-5.72014
-4.1849
-2.57938
-1.43449
-0.196751
-0.0294653
-0.20551
-1.14057
-2.37862
-3.56375
-4.17339
-4.27043
-4.1494
-3.12754
-2.5223
-1.78571
-0.927606
-0.796164
0.1212
-17.1356
-7.94739
-6.01568
-8.37792
-10.6671
-14.388
-17.5152
-18.0929
-17.0628
-16.1535
-13.8877
-11.4102
-9.10673
-7.12274
-6.82229
-7.45993
-8.49666
-9.25183
-9.46338
-9.48011
-8.67556
-7.36249
-5.17483
-2.25938
0.59945
2.48201
2.61275
1.80543
-0.152631
-1.89484
-3.43989
-4.70691
-4.99011
-5.11069
-4.03972
-3.69703
-2.46538
-0.791702
2.22773
2.96399
42.2315
42.1931
56.9092
68.1166
43.4077
45.8352
58.3654
72.1111
-41.1054
-34.423
-34.29
-24.7735
-22.8563
-39.9568
-32.048
-22.3553
-19.1436
-10.6249
-7.77546
-8.48632
-12.3939
-15.3281
-16.6193
-18.3527
-19.3807
-17.9373
-14.7835
-12.3934
-10.4107
-9.21567
-8.31644
-7.91131
-7.98998
-8.22586
-8.45469
-8.64515
-7.69547
-6.55751
-5.12718
-3.56534
-2.17529
-1.09436
-0.633084
-0.627421
-1.37452
-1.65778
-2.82912
-4.20724
-5.26658
-5.17798
-4.3811
-3.21237
-1.54506
-0.507357
0.907036
1.19273
-26.2865
-12.5484
-8.66626
-12.4501
-11.4551
-13.2442
-16.8144
-17.5773
-17.4334
-17.4343
-15.7636
-14.6977
-13.4087
-11.3532
-9.64673
-8.41266
-7.28723
-6.04227
-5.16037
-4.61327
-4.5959
-4.59555
-4.68792
-4.95783
-5.32413
-5.10115
-4.60152
-3.83531
-3.09951
-1.74669
-1.04251
-1.4039
-1.60071
-2.15102
-1.86692
-1.10544
-0.694463
-0.328692
-0.596516
-0.758224
40.4463
38.3809
35.012
20.7341
33.4228
31.3105
25.1018
14.1451
28.3052
27.5726
23.9649
17.591
27.0709
26.0241
23.1451
17.6701
-26.167
-52.8521
-1.31209
-6.52862
8.53877
0.657863
9.4296
0.797964
-22.1692
-8.43136
-17.8332
-17.1436
-2.11403
-2.62885
-10.9775
-18.1984
-7.30491
-11.8909
-14.9237
-18.0983
-6.09347
-10.8366
-13.4976
-14.9256
-15.4592
-13.3079
-9.662
-9.31925
-12.1459
-14.1478
-15.7907
-17.8465
-18.3703
-16.9538
-15.6702
-14.7108
-13.9675
-12.1266
-10.2841
-8.29125
-5.64069
-3.703
-2.0401
-1.6551
-2.41149
-3.3802
-4.85289
-6.11983
-7.05314
-7.07988
-6.29489
-4.79605
-2.596
-0.402259
2.49111
2.91252
2.57605
2.177
1.26951
1.49439
0.555349
0.191187
-0.883416
-1.60469
-18.9677
-14.4153
-10.5128
-10.1725
-12.5677
-14.537
-15.2864
-15.8878
-16.56
-16.3508
-15.4477
-14.4679
-13.4193
-11.6969
-9.69966
-8.14556
-6.67397
-5.39822
-4.29613
-3.56172
-3.6132
-4.18432
-5.07724
-5.57544
-5.92783
-5.62688
-4.53476
-3.23989
-1.79267
-1.18389
-0.538864
0.319506
0.979965
1.89861
2.1095
2.03297
1.29301
0.485334
-0.486309
-0.75999
-18.7599
-16.1592
-12.5479
-10.8396
-12.1547
-14.4948
-15.7844
-15.9098
-15.5253
-15.041
-14.3374
-13.5396
-12.6418
-11.2718
-9.60908
-8.22002
-7.17232
-5.93155
-4.71404
-3.8742
-3.62101
-4.02322
-4.38736
-4.72752
-4.66805
-4.3142
-3.90307
-3.28006
-2.58492
-1.84884
-0.823131
0.0661271
1.05669
1.81814
1.9505
1.67748
1.20601
0.573216
0.321215
0.0938042
-15.7922
-14.8491
-12.437
-10.6181
-11.2837
-13.8423
-15.8485
-16.1227
-15.1563
-14.2855
-13.6933
-13.2694
-12.6158
-11.286
-9.6394
-8.15409
-7.34581
-6.3348
-5.07227
-4.09984
-3.76726
-4.17813
-4.55615
-4.62233
-4.42681
-4.02447
-3.55999
-2.93582
-2.435
-1.66864
-1.08722
-0.205909
0.713596
1.39911
1.78848
1.68582
1.361
0.930063
0.628454
0.287551
)
;

boundaryField
{
    inlet
    {
        type            zeroGradient;
    }
    outlet
    {
        type            fixedValue;
        value           uniform 0;
    }
    obstacle
    {
        type            zeroGradient;
    }
    upperWall
    {
        type            zeroGradient;
    }
    lowerWall
    {
        type            zeroGradient;
    }
    frontAndBack
    {
        type            empty;
    }
}


// ************************************************************************* //
