/*--------------------------------*- C++ -*----------------------------------*\
  =========                 |
  \\      /  F ield         | OpenFOAM: The Open Source CFD Toolbox
   \\    /   O peration     | Website:  https://openfoam.org
    \\  /    A nd           | Version:  10
     \\/     M anipulation  |
\*---------------------------------------------------------------------------*/
FoamFile
{
    format      ascii;
    class       surfaceScalarField;
    location    "8.95";
    object      phi;
}
// * * * * * * * * * * * * * * * * * * * * * * * * * * * * * * * * * * * * * //

dimensions      [0 3 -1 0 0 0 0];

internalField   nonuniform List<scalar> 
760
(
-1.3376e-05
1.3376e-05
-4.3158e-05
2.9782e-05
-7.90545e-05
3.58965e-05
-0.000117052
3.79972e-05
-0.000155945
3.88928e-05
-0.000195439
3.94942e-05
-0.000235232
3.97928e-05
-0.000274643
3.94113e-05
-0.000312427
3.77837e-05
-0.000346606
3.41793e-05
-0.000374346
2.77398e-05
-0.000391911
1.75657e-05
-0.000394839
2.92807e-06
-0.000378334
-1.65053e-05
-0.000338716
-3.96177e-05
-0.000275231
-6.34853e-05
-0.000192691
-8.25396e-05
-0.000103699
-8.89928e-05
-2.90336e-05
-7.46651e-05
-2.90335e-05
-3.22923e-05
4.56684e-05
-9.10651e-05
8.85548e-05
-0.000159882
0.000104714
-0.000232085
0.0001102
-0.000305163
0.000111971
-0.000377977
0.000112308
-0.000449446
0.000111262
-0.000517984
0.00010795
-0.000581207
0.000101006
-0.000635708
8.86807e-05
-0.000676924
6.89554e-05
-0.000699018
3.96601e-05
-0.000695992
-9.80772e-08
-0.000660606
-5.18914e-05
-0.000588094
-0.00011213
-0.000477902
-0.000173677
-0.000337663
-0.000222779
-0.000187148
-0.000239508
-5.88128e-05
-0.000203
-8.78464e-05
-4.10879e-05
8.67563e-05
-0.000113638
0.000161105
-0.000197686
0.000188762
-0.000285239
0.000197752
-0.000373303
0.000200035
-0.000460489
0.000199495
-0.000545526
0.000196298
-0.00062665
0.000189075
-0.000701285
0.00017564
-0.000765765
0.00015316
-0.000815102
0.000118293
-0.000843053
6.76102e-05
-0.000841757
-1.39365e-06
-0.000802531
-9.1117e-05
-0.000718087
-0.000196574
-0.000585643
-0.000306121
-0.000412835
-0.000395587
-0.000224984
-0.00042736
-6.73053e-05
-0.000360678
-0.000155152
-4.44882e-05
0.000131244
-0.000123035
0.000239652
-0.000213758
0.000279484
-0.0003081
0.000292094
-0.000403063
0.000294998
-0.000497437
0.000293869
-0.00059022
0.000289081
-0.000679995
0.000278849
-0.000764569
0.000260214
-0.00084061
0.000229202
-0.000903204
0.000180888
-0.000945388
0.000109794
-0.000958062
1.12811e-05
-0.000929227
-0.000119952
-0.000846144
-0.000279658
-0.000699668
-0.000452596
-0.000493309
-0.000601946
-0.000259343
-0.000661326
-6.79935e-05
-0.000552028
-0.000223145
-4.52738e-05
0.000176518
-0.000126089
0.000320467
-0.000219671
0.000373066
-0.000317274
0.000389697
-0.000416137
0.00039386
-0.000515495
0.000393227
-0.000614954
0.000388541
-0.000713853
0.000377748
-0.000810858
0.000357219
-0.000903475
0.000321818
-0.000987345
0.000264758
-0.00105526
0.00017771
-0.00109599
5.20139e-05
-0.00109391
-0.000122034
-0.00102729
-0.000346282
-0.000874144
-0.00060574
-0.000624954
-0.000851136
-0.000315599
-0.000970681
-6.73199e-05
-0.000800307
-0.000290465
-4.48664e-05
0.000221385
-0.00012623
0.000401831
-0.000220994
0.00046783
-0.000320373
0.000489077
-0.000421946
0.000495433
-0.00052558
0.000496861
-0.000631751
0.000494712
-0.000740934
0.000486931
-0.000853186
0.000469471
-0.000967581
0.000436213
-0.00108126
0.000378441
-0.00118797
0.000284413
-0.00127573
0.000139773
-0.00132587
-7.18861e-05
-0.00130484
-0.000367314
-0.00116682
-0.000743762
-0.000867578
-0.00115038
-0.000433065
-0.00140519
-7.6784e-05
-0.00115659
-0.000367249
-4.38237e-05
0.000265208
-0.000124824
0.000482831
-0.000219822
0.000562828
-0.000320011
0.000589266
-0.000423343
0.000598765
-0.000530408
0.000603926
-0.000642776
0.000607081
-0.000762433
0.000606588
-0.000891472
0.00059851
-0.0010316
0.000576344
-0.00118321
0.000530044
-0.00134371
0.000444918
-0.00150459
0.000300651
-0.00164802
7.15483e-05
-0.00172872
-0.000286618
-0.00165699
-0.000815488
-0.00131338
-0.00149399
-0.000693716
-0.00202486
-0.000137819
-0.00171248
-0.000505068
-4.23091e-05
0.000307517
-0.000122277
0.000562799
-0.000216665
0.000657216
-0.000316564
0.000689165
-0.000420249
0.00070245
-0.000529047
0.000712724
-0.00064572
0.000723754
-0.000774079
0.000734946
-0.000918944
0.000743375
-0.001086
0.000743402
-0.00128137
0.000725412
-0.00151072
0.000674266
-0.00177695
0.000566884
-0.00206802
0.00036262
-0.00233453
-2.01074e-05
-0.00239779
-0.000752234
-0.00203006
-0.00186172
-0.00121329
-0.00284163
-0.000354942
-0.00257083
-0.00086001
-4.04132e-05
0.000347931
-0.000118774
0.00064116
-0.000211627
0.000750068
-0.000309783
0.000787321
-0.000411715
0.000804382
-0.00051938
0.000820389
-0.000636661
0.000841034
-0.000769207
0.000867492
-0.000924874
0.000899042
-0.0011145
0.000933029
-0.00135297
0.000963884
-0.00166016
0.000981451
-0.00205857
0.000965295
-0.00254823
0.000852279
-0.00302839
0.000460052
-0.00325264
-0.000527983
-0.00291251
-0.00220184
-0.00203162
-0.00372253
-0.000850675
-0.00375177
-0.00171068
-3.83474e-05
0.000386278
-0.000114728
0.000717541
-0.00020509
0.00084043
-0.000299739
0.000881971
-0.00039712
0.000901763
-0.000499586
0.000922856
-0.000611815
0.000953263
-0.000740885
0.000996562
-0.000897275
0.00105543
-0.00109674
0.00113249
-0.00136331
0.00123046
-0.00173161
0.00134974
-0.00223786
0.00147154
-0.00287655
0.00149097
-0.00349502
0.00107852
-0.00379293
-0.000230074
-0.00358847
-0.0024063
-0.00288012
-0.00443088
-0.00153436
-0.00509753
-0.00324504
-3.65678e-05
0.000422846
-0.000111055
0.000792028
-0.000198146
0.000927521
-0.000287393
0.000971218
-0.000376959
0.000991329
-0.000469224
0.00101512
-0.00056902
0.00105306
-0.000683786
0.00111133
-0.000824908
0.00119655
-0.00101017
0.00131776
-0.00126732
0.00148761
-0.00163457
0.00171699
-0.00214079
0.00197776
-0.00274823
0.00209841
-0.00329984
0.00163013
-0.00356607
3.61573e-05
-0.00352319
-0.00244919
-0.00308398
-0.00487008
-0.00191073
-0.00627078
-0.00515577
-3.60077e-05
0.000458854
-0.000109587
0.000865607
-0.000193024
0.00101096
-0.000274998
0.00105319
-0.000353355
0.00106969
-0.000430122
0.00109189
-0.00050941
0.00113235
-0.000597334
0.00119925
-0.00070301
0.00130223
-0.000840083
0.00145483
-0.00102798
0.00167551
-0.00128831
0.00197732
-0.00162753
0.00231699
-0.00199637
0.00246725
-0.0023131
0.00194686
-0.00250386
0.000226925
-0.00259016
-0.00236289
-0.00248089
-0.00497935
-0.00172961
-0.00702207
-0.00688538
-3.77999e-05
0.000496653
-0.000112622
0.000940429
-0.000192941
0.00109128
-0.000266549
0.0011268
-0.000330868
0.00113401
-0.00038739
0.00114841
-0.000438972
0.00118393
-0.000488927
0.00124921
-0.000541423
0.00135473
-0.000601349
0.00151476
-0.000673416
0.00174757
-0.000756239
0.00206014
-0.000844876
0.00240562
-0.000912663
0.00253503
-0.000982332
0.00201653
-0.00108125
0.000325839
-0.00128906
-0.00215508
-0.00153484
-0.00473356
-0.00126368
-0.00729323
-0.00814906
-4.59474e-05
0.000542601
-0.000126625
0.00102111
-0.000203922
0.00116857
-0.000266659
0.00118954
-0.000314075
0.00118142
-0.000347555
0.00118189
-0.000367917
0.00120429
-0.000375427
0.00125672
-0.000369021
0.00134832
-0.000344761
0.0014905
-0.000294321
0.00169713
-0.0001996
0.00196542
-4.93522e-05
0.00225538
0.000126694
0.00235899
0.000258481
0.00188474
0.000186847
0.000397473
-0.000151392
-0.00181684
-0.000729475
-0.00415548
-0.000862426
-0.00716028
-0.00901148
-5.68469e-05
0.000599448
-0.000147567
0.00111183
-0.000227108
0.00124812
-0.000284598
0.00124703
-0.000316968
0.00121379
-0.000326515
0.00119144
-0.000314263
0.00119204
-0.000278862
0.00122132
-0.000215832
0.00128529
-0.000115907
0.00139057
3.72672e-05
0.00154396
0.000259577
0.00174311
0.000568761
0.00194619
0.000927012
0.00200074
0.00118452
0.00162723
0.00112781
0.000454187
0.000664287
-0.00135332
-0.000135031
-0.00335616
-0.000541679
-0.00675363
-0.00955316
-0.000124613
0.000724061
-0.000229576
0.00121679
-0.000292765
0.00131131
-0.000322314
0.00127657
-0.000327281
0.00121876
-0.000310734
0.00117489
-0.000270583
0.00115189
-0.000201719
0.00115245
-9.67447e-05
0.00118031
5.60714e-05
0.00123776
0.000269457
0.00133057
0.000563527
0.00144904
0.000943121
0.0015666
0.0013659
0.00157796
0.00168184
0.00131128
0.00164949
0.000486538
0.0011478
-0.000851631
0.000255086
-0.00246345
-0.000288873
-0.00620967
-0.00984204
-8.03243e-05
0.000804385
-0.00025138
0.00138784
-0.000353793
0.00141372
-0.000394758
0.00131754
-0.000391822
0.00121582
-0.000355429
0.00113849
-0.000287887
0.00108435
-0.000186064
0.00105063
-4.39055e-05
0.00103816
0.000149127
0.00104473
0.000403767
0.00107593
0.000731987
0.00112082
0.0011288
0.00116979
0.00155422
0.00115253
0.0018783
0.000987203
0.00186619
0.000498646
0.00140854
-0.000393974
0.000610997
-0.00166591
8.3042e-05
-0.00568172
-0.00975899
-0.000376636
0.00118102
-0.000427344
0.00143855
-0.000465668
0.00145204
-0.000491308
0.00134318
-0.00046896
0.00119347
-0.00040489
0.00107442
-0.000302281
0.00098174
-0.000158908
0.000907255
2.49104e-05
0.000854338
0.000255086
0.00081455
0.000534825
0.000796195
0.000870446
0.0007852
0.0012502
0.000790032
0.0016316
0.000771136
0.00194469
0.000674108
0.00202018
0.000423161
0.00186943
-0.000243222
0.00149637
-0.00129285
0.000843302
-0.00502864
-0.00891569
-0.00136295
0.00254397
-0.00132325
0.00139885
-0.0010591
0.00118789
-0.000682203
0.000966282
-0.000285402
0.000796674
0.000115378
0.000673645
0.000509486
0.000587633
0.000896788
0.000519953
0.00127914
0.000471984
0.00166239
0.0004313
0.00205315
0.00040544
0.00245547
0.000382878
0.00288064
0.00036486
0.00331404
0.000337734
0.00372894
0.000259215
0.00402707
0.000125027
0.00410614
-0.00032229
0.003956
-0.00114271
0.00251006
-0.00358271
-0.00640563
0.00254397
0.00394283
0.00513072
0.006097
0.00689367
0.00756732
0.00815495
0.0086749
0.00914689
0.00957819
0.00998363
0.0103665
0.0107314
0.0110691
0.0113283
0.0114533
0.0111311
0.00998834
0.00640563
)
;

boundaryField
{
    movingWall
    {
        type            calculated;
        value           uniform 0;
    }
    fixedWalls
    {
        type            calculated;
        value           uniform 0;
    }
    frontAndBack
    {
        type            empty;
        value           nonuniform List<scalar> 0();
    }
}


// ************************************************************************* //
