/*--------------------------------*- C++ -*----------------------------------*\
  =========                 |
  \\      /  F ield         | OpenFOAM: The Open Source CFD Toolbox
   \\    /   O peration     | Website:  https://openfoam.org
    \\  /    A nd           | Version:  10
     \\/     M anipulation  |
\*---------------------------------------------------------------------------*/
FoamFile
{
    format      ascii;
    class       volScalarField;
    location    "3.425";
    object      p;
}
// * * * * * * * * * * * * * * * * * * * * * * * * * * * * * * * * * * * * * //

dimensions      [0 2 -2 0 0 0 0];

internalField   nonuniform List<scalar> 
400
(
1.01119e-08
-3.20705e-05
-1.19091e-05
3.37812e-05
0.000110603
0.000218973
0.000358785
0.000529568
0.000729968
0.000957392
0.00120767
0.00147475
0.00175047
0.0020245
0.00228458
0.0025171
0.00270766
0.00284286
0.00292134
0.00289971
3.19512e-05
-1.38399e-06
1.92896e-05
6.2456e-05
0.000135032
0.000237999
0.000371629
0.00053581
0.000729537
0.000950573
0.00119509
0.00145713
0.00172918
0.00200094
0.00226013
0.00249296
0.00268464
0.00282166
0.00290366
0.00288066
8.4203e-06
-2.95457e-05
-1.04636e-05
3.02731e-05
0.000100301
0.000200835
0.000332518
0.000495703
0.000689895
0.000913345
0.00116268
0.00143287
0.00171588
0.00200129
0.00227621
0.00252561
0.00273287
0.00288213
0.00297234
0.00294545
-4.53409e-05
-8.75151e-05
-7.0564e-05
-3.2935e-05
3.39087e-05
0.000131585
0.000261338
0.000424239
0.00062059
0.000849467
0.00110826
0.00139234
0.00169452
0.00200398
0.00230658
0.00258518
0.00282014
0.00299161
0.00309695
0.00306816
-0.000135023
-0.000181996
-0.000167786
-0.000133937
-7.08138e-05
2.37453e-05
0.000151785
0.000315347
0.000515832
0.000753489
0.00102686
0.00133218
0.00166291
0.00200811
0.00235248
0.00267605
0.00295444
0.00316141
0.00329123
0.00326201
-0.000261192
-0.000314103
-0.000303452
-0.000274493
-0.000216261
-0.000125904
-3.66662e-07
0.000163645
0.000368985
0.000617509
0.000909398
0.00124237
0.00161125
0.00200528
0.00240801
0.00279608
0.00313866
0.00339969
0.00356762
0.00354044
-0.000424435
-0.000484709
-0.000478736
-0.000456383
-0.000405087
-0.000321159
-0.000200315
-3.76967e-05
0.000171419
0.000431048
0.000743711
0.00110936
0.00152528
0.0019819
0.00246231
0.0029396
0.00337467
0.00371687
0.00394382
0.00392456
-0.000625763
-0.0006951
-0.000695287
-0.000681955
-0.000640651
-0.000566745
-0.000454508
-0.000297204
-8.7804e-05
0.000180513
0.000513555
0.000914736
0.00138451
0.00191723
0.00249719
0.00309469
0.00366124
0.0041256
0.00444473
0.0044479
-0.00086637
-0.000946732
-0.00095491
-0.000953754
-0.000926627
-0.000867896
-0.000770222
-0.000624737
-0.000421714
-0.000150916
0.000197767
0.000633625
0.0011595
0.00177968
0.0024822
0.00323754
0.00398838
0.00463814
0.00510355
0.00516492
-0.00114759
-0.00124118
-0.00125941
-0.00127428
-0.00126668
-0.00122997
-0.0011551
-0.00103094
-0.000844845
-0.000582787
-0.000229604
0.000229933
0.000809982
0.00152247
0.00236742
0.0033227
0.00432711
0.00525881
0.00596144
0.00616865
-0.00147106
-0.00158021
-0.00161049
-0.00164575
-0.00166407
-0.0016579
-0.00161647
-0.00152638
-0.00137216
-0.00113598
-0.000797286
-0.000332796
0.000283501
0.00107838
0.00207323
0.0032665
0.00460825
0.00596255
0.00706346
0.00762396
-0.00183915
-0.00196607
-0.00200969
-0.00206978
-0.00212119
-0.00215556
-0.00216035
-0.00212017
-0.00201715
-0.00183036
-0.00153439
-0.00109772
-0.000480847
0.000357218
0.00147723
0.00291883
0.00467968
0.00664885
0.00841964
0.00982247
-0.00225625
-0.00240205
-0.00245832
-0.00254699
-0.00263891
-0.00272483
-0.00279033
-0.00281826
-0.0027894
-0.00268149
-0.00246738
-0.00211176
-0.00156724
-0.000770971
0.00038944
0.00201586
0.00421909
0.00701022
0.00987805
0.0132511
-0.00273144
-0.00289328
-0.00295558
-0.00307478
-0.00321508
-0.00336484
-0.00350656
-0.00362167
-0.00369109
-0.00369396
-0.00360579
-0.00339384
-0.00300786
-0.00236136
-0.00134593
0.000201804
0.00262311
0.0062248
0.0106021
0.0176025
-0.00328063
-0.00346503
-0.00352431
-0.00367694
-0.0038639
-0.00407937
-0.00430655
-0.00452487
-0.00471453
-0.00485826
-0.00494226
-0.00495243
-0.00486711
-0.00464305
-0.00420437
-0.00335621
-0.00169928
0.00207364
0.00724475
0.0195834
-0.00399294
-0.00398218
-0.00399786
-0.00414463
-0.00441008
-0.00474745
-0.005118
-0.00548622
-0.00582857
-0.00613408
-0.00640852
-0.00667176
-0.00696153
-0.00733063
-0.00786857
-0.00860391
-0.0094814
-0.00804907
-0.00487255
0.0141124
-0.0045039
-0.00502721
-0.00495143
-0.00524499
-0.00553295
-0.00589035
-0.00629509
-0.00671998
-0.00714765
-0.00757043
-0.00800935
-0.00852264
-0.00923732
-0.0103753
-0.0123939
-0.0156329
-0.02237
-0.0255318
-0.0236103
0.0050706
-0.00760021
-0.00515634
-0.0049183
-0.00486358
-0.00530093
-0.00593031
-0.00665206
-0.00737148
-0.0080563
-0.00867926
-0.00929252
-0.00996009
-0.0109355
-0.0124714
-0.0156825
-0.0201978
-0.0308467
-0.0370139
-0.0355914
0.0156144
-0.00453462
-0.00750132
-0.00697603
-0.00764374
-0.00793968
-0.00838027
-0.00891276
-0.00945566
-0.00999771
-0.0105015
-0.010961
-0.0115363
-0.012429
-0.0139571
-0.0179063
-0.0228259
-0.0339842
-0.0359073
-0.0174466
0.0636375
-0.0285548
-0.00397703
-0.00336542
-0.00343304
-0.0040716
-0.00510123
-0.00631648
-0.00741945
-0.00848907
-0.00930964
-0.0101874
-0.0109186
-0.0121777
-0.0136369
-0.0161479
-0.0176032
-0.0158786
0.00437692
0.0637913
0.197919
)
;

boundaryField
{
    movingWall
    {
        type            zeroGradient;
    }
    fixedWalls
    {
        type            zeroGradient;
    }
    frontAndBack
    {
        type            empty;
    }
}


// ************************************************************************* //
