/*--------------------------------*- C++ -*----------------------------------*\
  =========                 |
  \\      /  F ield         | OpenFOAM: The Open Source CFD Toolbox
   \\    /   O peration     | Website:  https://openfoam.org
    \\  /    A nd           | Version:  10
     \\/     M anipulation  |
\*---------------------------------------------------------------------------*/
FoamFile
{
    format      ascii;
    class       surfaceScalarField;
    location    "6.3";
    object      phi;
}
// * * * * * * * * * * * * * * * * * * * * * * * * * * * * * * * * * * * * * //

dimensions      [0 3 -1 0 0 0 0];

internalField   nonuniform List<scalar> 
928
(
0.0978239
0.00217606
0.102914
-0.00508966
0.107425
-0.00451098
-0.00866315
0.116088
0.0965858
0.00559024
0.105964
-0.014468
0.104943
-0.0034894
-0.0167076
0.112987
0.0962682
0.00932208
0.107043
-0.025243
0.104692
-0.00113798
-0.033822
0.121806
0.100136
0.00918566
0.0950999
-0.0202065
0.0952304
-0.00126856
0.145141
-0.0837329
0.111485
0.00460257
-0.0171238
0.128609
0.111362
0.0062273
-0.0411206
0.135359
0.127004
0.00102958
-0.0446202
0.130504
0.146171
0.101551
0.129567
-0.000958019
0.131111
-0.00154412
0.132773
-0.00166153
-0.000637701
0.13341
0.137107
-0.00270559
0.139215
-0.00365288
0.139695
-0.00214153
-1.84677e-05
0.139076
0.13988
-0.012082
0.144688
-0.00846066
0.139785
0.00276095
0.0021955
0.137571
0.110312
-0.0208437
0.106615
-0.00476273
0.0978654
0.0115101
0.0991615
0.000899403
0.13354
-0.000129789
0.132463
0.00107747
0.131403
0.00105918
0.129352
0.00205145
0.126717
0.00263503
0.124353
0.00236382
0.122114
0.00223953
0.120544
0.00156937
0.118586
0.00195854
0.117458
0.0011274
0.116654
0.00080426
0.117484
-0.000829838
0.118733
-0.00124921
0.119919
-0.00118635
0.121272
-0.00135267
0.122129
-0.000857024
0.123643
-0.00151347
0.124244
-0.000601337
0.124879
-0.000634771
0.124497
0.000381651
0.123707
0.000789908
0.122645
0.00106192
0.121067
0.00157858
0.120038
0.00102886
0.118465
0.0015729
0.117565
0.000900089
0.116357
0.00120787
0.115488
0.000868575
0.114477
0.00101141
0.11336
0.00111706
0.112437
0.000922912
0.110873
0.00156356
0.109607
0.00126614
0.107496
0.0021118
0.105761
0.00173484
0.103701
0.00205989
0.102101
0.00159959
0.100926
0.00117561
0.100201
0.000724571
-0.000127654
0.138279
0.00066726
0.137992
0.00136436
0.137176
0.00187586
0.134575
0.00465189
0.132614
0.00459657
0.131138
0.00383954
0.129522
0.00385564
0.127467
0.00362451
0.124982
0.004443
0.123599
0.00251073
0.123246
0.0011571
0.123965
-0.00154847
0.125225
-0.00250928
0.12675
-0.00271196
0.128516
-0.00311816
0.130245
-0.00258619
0.132194
-0.00346229
0.133458
-0.00186525
0.134686
-0.00186284
0.135022
4.52037e-05
0.134881
0.000931477
0.134551
0.00139123
0.133846
0.00228381
0.133523
0.00135198
0.132304
0.00279208
0.132318
0.00088629
0.131445
0.0020806
0.131145
0.0011689
0.13085
0.00130565
0.130234
0.00173328
0.130072
0.00108477
0.128839
0.00279698
0.128146
0.00195861
0.126405
0.00385349
0.125242
0.00289751
0.123558
0.00374377
0.121997
0.00316062
0.120975
0.00219755
0.119941
0.00175854
-0.000253148
0.136656
0.0015825
0.137892
0.000128082
0.134766
0.00500165
0.132027
0.00739129
0.132781
0.00384296
0.131647
0.00497317
0.128429
0.00707336
0.124795
0.00725871
0.123239
0.00599923
0.122151
0.00359827
0.121611
0.00169752
0.121178
-0.00111509
0.121122
-0.00245369
0.122025
-0.00361532
0.123225
-0.00431817
0.124796
-0.00415653
0.125354
-0.00402011
0.126577
-0.00308918
0.127072
-0.00235701
0.127844
-0.000727069
0.128489
0.000285908
0.129254
0.000626843
0.129618
0.00191934
0.129443
0.00152735
0.13024
0.00199512
0.130287
0.00083959
0.130434
0.00193283
0.130858
0.000744785
0.131588
0.000576628
0.132353
0.000968273
0.132996
0.000441739
0.133688
0.0021048
0.134199
0.00144747
0.134307
0.00374534
0.133747
0.00345787
0.132785
0.00470589
0.131558
0.00438667
0.130802
0.00295423
0.129793
0.00276747
0.000916308
0.108418
-0.00767382
0.110858
-0.00231243
0.10355
0.0123099
0.107251
0.00369018
0.112727
-0.00163267
0.114051
0.00364894
0.114962
0.00616211
0.116253
0.00596814
0.116811
0.00544151
0.115638
0.00477084
0.113773
0.00356236
0.109525
0.00313282
0.104043
0.00302823
0.0987855
0.00164252
0.09491
-0.000442732
0.0909538
-0.000200284
0.0883118
-0.00137814
0.0873939
-0.00217128
0.0865072
-0.00147036
0.0861276
-0.000347391
0.0872549
-0.00084143
0.0882545
-0.000372722
0.0873053
0.00286855
0.0873971
0.00143555
0.0886526
0.000739565
0.0870999
0.00239225
0.0875733
0.00145951
0.0886124
-0.000294363
0.0895826
-0.000393545
0.090999
-0.000448133
0.0935774
-0.0021367
0.0967448
-0.00106257
0.0994921
-0.00129984
0.103424
-0.00018652
0.105352
0.00153013
0.106989
0.0030684
0.107119
0.00425683
0.10468
0.00539306
0.100829
0.00661868
0.00335658
0.108366
0.000819703
0.0880326
0.000126899
0.0840873
0.00267676
0.000354414
0.111136
-0.010316
0.0892123
0.0220503
0.0898344
0.00205468
0.0901888
-0.0078683
-0.0129754
0.0162402
-0.0288713
-0.0146871
0.0424374
-0.00421683
-0.00957083
-0.020356
0.00738062
-0.0370118
-0.0122155
-0.00649504
0.0119206
0.00757515
-0.018287
-0.00374089
-0.0135038
0.0101905
-0.0162438
0.0189262
0.00357424
-0.00114528
0.0237616
0.00936388
-0.0121418
0.0211193
-0.00810652
0.0181293
0.00915217
0.0169952
0.0071022
0.0184418
0.00399495
0.0191895
0.00402313
0.0180616
0.00469029
0.0160576
0.00513675
0.0130858
0.00600006
0.0111273
0.00360105
0.010277
0.000407502
0.0103564
-0.000279627
0.0105269
-0.0015487
0.0106996
-0.00234391
0.0129959
-0.00376672
0.0145346
-0.00188608
0.0146586
-0.000965435
0.0169652
-0.00267932
0.0191353
0.000698447
0.0196428
0.00092807
0.0209541
-0.000571747
0.0231801
0.000166293
0.0247488
-0.000109192
0.0263346
-0.00188022
0.0281955
-0.00225447
0.0308338
-0.00308634
0.0333107
-0.0046136
0.0358364
-0.00358834
0.0381235
-0.00358695
0.0403539
-0.00241695
0.0420876
-0.00020349
0.0427201
0.00243589
0.0438085
0.00316837
0.0435128
0.00568878
0.0425037
0.0076278
0.00289062
-0.00721696
0.00128834
-0.0151866
-0.0082742
-0.0130306
0.0014183
0.00321385
0.00751716
0.00216852
-0.0110965
-0.00345744
-0.00248057
0.00341395
0.00228079
0.012427
-0.00191089
0.0162769
0.000145056
0.0171279
0.00317214
0.0173276
0.00449064
0.0180403
0.00442403
0.020739
0.00330134
0.0226494
0.00169062
0.0226161
0.000440873
0.0224094
-7.29545e-05
0.0225297
-0.00166903
0.0217219
-0.0015361
0.0216911
-0.00373593
0.0230527
-0.00324763
0.0235473
-0.00146002
0.0236343
-0.00276631
0.0266226
-0.00228985
0.0291161
-0.00156548
0.028978
-0.00043361
0.0311846
-0.0020403
0.0336339
-0.00255853
0.0337426
-0.00198895
0.0345965
-0.00310831
0.0355091
-0.00399894
0.0354545
-0.00455905
0.0357702
-0.00390408
0.0364304
-0.00424713
0.0368767
-0.00286324
0.038224
-0.00155074
0.0408265
-0.000166649
0.0425728
0.00142208
0.0456186
0.00264301
0.0494333
0.0038131
0.00110664
0.0998729
-0.0101889
0.0916806
0.0302426
0.0939691
-0.000233854
0.0382047
0.145953
0.0959868
-0.00617575
0.109844
0.016385
0.106631
0.00297944
0.0186743
0.126162
0.0961441
-0.0023199
0.106872
0.00565703
0.105549
0.00430239
0.00905606
0.115167
0.0976801
0.103337
0.10764
0.116696
0.147277
-0.00132355
0.0471799
0.100097
0.132068
-0.00722953
0.0415404
0.137707
0.112662
-0.00472451
0.0163872
0.137816
0.111971
0.128358
0.102447
0.00503038
0.0874794
0.00275228
0.0972443
0.00215575
-0.0041286
0.0830858
0.14177
0.000967423
0.145631
-0.00110889
0.146823
0.000963679
0.00194521
0.140749
0.139247
-0.000463842
0.137873
0.000264997
0.138322
0.000514788
0.00121387
0.139053
0.127894
0.128159
0.128674
0.129888
0.0869217
-0.00254754
0.0801676
-0.00152005
0.0828831
-0.00129718
0.089296
0.00110422
0.0815223
-0.00332284
0.0843261
-0.00528434
0.0889664
-0.00235947
0.0894081
-0.00235262
0.0912415
-0.00168834
0.0956057
-0.00119205
0.0997626
0.000333719
0.103876
0.000310226
0.107159
1.90722e-05
0.109983
-0.00113352
0.113197
-0.00277301
0.115474
-0.00235052
0.116916
-0.00311103
0.117045
-0.00166458
0.115139
-0.00183
0.11258
-0.00068845
0.111398
-0.000278836
0.108981
-0.000349052
0.106435
0.00025606
0.106021
-0.00115107
0.105955
-0.000367344
0.106101
-0.00218715
0.105768
-0.00222488
0.107334
-0.00355542
0.107789
-0.00356338
0.106815
-0.00302427
0.106097
-0.00384117
0.103764
-0.00157103
0.101793
-0.00227672
0.0987991
0.000131058
0.0976187
-0.000370397
0.0959861
0.00146596
0.0959786
0.0014296
0.097779
0.000842562
0.100091
0.00150121
-0.00167442
0.138579
-0.000376687
0.13782
-0.000761681
0.138367
-0.00184394
0.140996
-0.00152487
0.139161
-0.00148782
0.136887
-0.00301046
0.136914
-0.00238665
0.136331
-0.0017695
0.134865
-0.000222673
0.134487
-0.000813817
0.134626
0.000194631
0.135492
-0.000555287
0.136175
-0.000664315
0.135974
-0.000932361
0.135289
-0.00208823
0.134288
-0.00134905
0.133435
-0.00225842
0.132593
-0.000822588
0.131921
-0.00115728
0.13139
-0.000157853
0.130896
0.000215294
0.130454
9.24712e-05
0.129869
0.000841311
0.129622
-0.000903962
0.12916
9.44218e-05
0.129051
-0.0020777
0.128356
-0.00153014
0.127536
-0.00273552
0.126596
-0.00262291
0.125725
-0.00215397
0.124748
-0.00286381
0.123817
-0.000639812
0.123158
-0.00161836
0.122784
0.000505616
0.122322
9.10352e-05
0.122716
0.00107263
0.123293
0.000852468
0.124059
7.65637e-05
0.125549
1.13784e-05
-0.0020966
0.137932
0.000744459
0.137208
-3.78461e-05
0.136757
-0.00139304
0.136478
-0.00124514
0.136009
-0.00101899
0.134226
-0.00122745
0.132954
-0.00111493
0.132376
-0.00119137
0.132237
-8.38717e-05
0.131849
-0.000425556
0.131936
0.000107922
0.131826
-0.000445435
0.131852
-0.000691129
0.131752
-0.000831848
0.130922
-0.00125831
0.130409
-0.000836384
0.129507
-0.0013557
0.129166
-0.000482199
0.128792
-0.000783384
0.128657
-2.22372e-05
0.128819
5.29204e-05
0.128961
-4.93652e-05
0.129582
0.000220689
0.129174
-0.000496217
0.129524
-0.000255758
0.128729
-0.00128299
0.128241
-0.00104224
0.127087
-0.00158144
0.126029
-0.00156444
0.125115
-0.00124051
0.123584
-0.00133206
0.123459
-0.000514974
0.122547
-0.00070702
0.122777
0.000276459
0.123005
-0.00013685
0.12358
0.000497001
0.124382
5.02872e-05
0.124641
-0.000181909
0.125225
-0.000573041
-0.00160731
0.130632
0.130595
0.129202
0.127956
0.126937
0.12571
0.124595
0.123404
0.12332
0.122894
0.123002
0.122557
0.121866
0.121034
0.119775
0.118939
0.117583
0.117101
0.116318
0.116296
0.116349
0.116299
0.11652
0.116024
0.115768
0.114485
0.113443
0.111861
0.110297
0.109056
0.107724
0.107209
0.106502
0.106779
0.106642
0.107139
0.107189
0.107007
0.106434
)
;

boundaryField
{
    inlet
    {
        type            calculated;
        value           nonuniform List<scalar> 10(-0.1 -0.1 -0.1 -0.1 -0.1 -0.1 -0.1 -0.1 -0.1 -0.1);
    }
    outlet
    {
        type            calculated;
        value           nonuniform List<scalar> 10(0.100329 0.120067 0.128623 0.0983887 0.0429696 0.0512173 0.102872 0.125971 0.124736 0.104827);
    }
    obstacle
    {
        type            calculated;
        value           uniform 0;
    }
    upperWall
    {
        type            calculated;
        value           uniform 0;
    }
    lowerWall
    {
        type            calculated;
        value           uniform 0;
    }
    frontAndBack
    {
        type            empty;
        value           nonuniform List<scalar> 0();
    }
}


// ************************************************************************* //
