/*--------------------------------*- C++ -*----------------------------------*\
  =========                 |
  \\      /  F ield         | OpenFOAM: The Open Source CFD Toolbox
   \\    /   O peration     | Website:  https://openfoam.org
    \\  /    A nd           | Version:  10
     \\/     M anipulation  |
\*---------------------------------------------------------------------------*/
FoamFile
{
    format      ascii;
    class       volVectorField;
    location    "6.3";
    object      U;
}
// * * * * * * * * * * * * * * * * * * * * * * * * * * * * * * * * * * * * * //

dimensions      [0 1 -1 0 0 0 0];

internalField   nonuniform List<vector> 
496
(
(9.98389 0.0554482 0)
(10.0172 -0.174018 0)
(10.2986 -0.161503 0)
(10.7506 -0.264937 0)
(10.1049 0.253653 0)
(9.92818 -0.924182 0)
(10.3313 -0.587452 0)
(10.9575 -1.09953 0)
(10.882 1.0025 0)
(9.14993 -2.30036 0)
(11.0191 -0.507504 0)
(10.877 -3.3015 0)
(12.2447 1.13875 0)
(8.01362 -2.17328 0)
(12.6419 0.0805946 0)
(10.1509 -5.86155 0)
(11.4708 -0.224249 2.90868e-18)
(12.2185 -0.185295 -1.06553e-19)
(11.7077 -0.727916 2.20184e-19)
(12.6436 -0.147679 1.83256e-18)
(12.8317 -2.27498 -3.13236e-18)
(13.4047 -0.240019 -1.72604e-18)
(12.6052 -5.92662 -3.12864e-17)
(15.5732 -3.90102 5.57094e-17)
(12.9037 -0.198457 0)
(13.2108 -0.161247 0)
(13.5197 -0.102759 0)
(13.5772 0.0590222 0)
(13.3056 -0.144221 0)
(13.7186 -0.411372 0)
(14.1044 -0.492076 0)
(14.263 -0.414193 0)
(13.0789 0.25307 0)
(13.1666 0.342453 0)
(13.7002 0.489354 0)
(14.0223 0.695234 0)
(10.0159 -4.13337 0)
(8.97349 -1.69185 0)
(9.83379 -0.317339 0)
(10.6879 -0.672247 0)
(13.6258 0.169662 0)
(13.4573 0.332348 0)
(13.2926 0.38403 0)
(13.0152 0.479351 0)
(12.8376 0.546597 0)
(12.6517 0.58056 0)
(12.4004 0.628201 0)
(12.0386 0.603796 0)
(11.7809 0.65965 0)
(11.7509 0.594623 0)
(11.8484 0.511301 0)
(11.7883 0.357943 0)
(11.7689 0.274221 0)
(11.7598 0.239215 0)
(12.0365 0.185678 0)
(12.1947 0.184111 0)
(12.4427 0.10889 0)
(12.4198 0.129841 0)
(12.4832 0.109323 0)
(12.4069 0.156882 0)
(12.3961 0.194624 0)
(12.3232 0.211274 0)
(12.2021 0.269867 0)
(12.1026 0.244634 0)
(11.9162 0.303737 0)
(11.8076 0.271803 0)
(11.6788 0.316325 0)
(11.5519 0.30677 0)
(11.5277 0.331861 0)
(11.3389 0.362438 0)
(11.385 0.359384 0)
(11.1017 0.412067 0)
(11.1063 0.39566 0)
(10.7895 0.437112 0)
(10.6926 0.408022 0)
(10.4662 0.416046 0)
(10.2758 0.389147 0)
(10.1837 0.349947 0)
(10.0099 0.322039 0)
(10.0326 0.216672 0)
(14.288 -0.39559 0)
(14.1072 -0.291733 0)
(13.8686 -0.293253 0)
(13.6396 -0.202046 0)
(13.4154 -0.152972 0)
(13.2329 -0.203086 0)
(13.0047 -0.21141 0)
(12.7015 -0.322431 0)
(12.5055 -0.277024 0)
(12.3557 -0.343284 0)
(12.4182 -0.307995 0)
(12.3807 -0.464818 0)
(12.4584 -0.48865 0)
(12.5189 -0.438717 0)
(12.7611 -0.410143 0)
(12.9783 -0.305798 0)
(13.1798 -0.354327 0)
(13.3232 -0.227172 0)
(13.3841 -0.230969 0)
(13.4808 -0.0875391 0)
(13.4734 -0.0425551 0)
(13.5071 0.00722622 0)
(13.438 0.0562363 0)
(13.377 -0.00621302 0)
(13.3119 0.0441916 0)
(13.1951 -0.063017 0)
(13.2014 -0.0221156 0)
(13.0743 -0.0980843 0)
(13.1466 -0.0793178 0)
(13.0088 -0.0912324 0)
(13.0727 -0.115288 0)
(12.9256 -0.0376259 0)
(12.8781 -0.0787348 0)
(12.7271 0.0402988 0)
(12.5559 -0.0332889 0)
(12.4757 -0.000949004 0)
(12.2435 -0.0947482 0)
(12.2078 -0.151333 0)
(12.0059 -0.197303 0)
(12.0053 -0.238614 0)
(14.0821 0.704014 0)
(13.9319 0.75603 0)
(13.7952 0.853808 0)
(13.6543 1.10144 0)
(13.4205 1.12416 0)
(13.0686 1.08978 0)
(12.9539 1.10023 0)
(12.4756 1.04829 0)
(12.3951 1.05181 0)
(12.18 0.7457 0)
(12.2211 0.480504 0)
(12.0806 0.0547633 0)
(12.111 -0.141564 0)
(12.234 -0.262384 0)
(12.2281 -0.35297 0)
(12.4676 -0.292748 0)
(12.4322 -0.370807 0)
(12.642 -0.185183 0)
(12.6442 -0.164807 0)
(12.7435 0.0723704 0)
(12.8998 0.195915 0)
(12.813 0.226118 0)
(13.0581 0.391939 0)
(12.8353 0.241918 0)
(13.117 0.440289 0)
(12.8781 0.21169 0)
(13.1085 0.356934 0)
(13.0451 0.272211 0)
(13.1058 0.261012 0)
(13.23 0.362365 0)
(13.1851 0.248993 0)
(13.438 0.499951 0)
(13.3255 0.387759 0)
(13.5087 0.684244 0)
(13.3628 0.632169 0)
(13.3484 0.786655 0)
(13.2436 0.767458 0)
(13.0707 0.605438 0)
(13.081 0.533203 0)
(12.8644 0.141327 0)
(10.3591 -0.54172 0)
(10.4302 -0.672424 0)
(10.4171 0.17942 0)
(11.5979 0.0164549 0)
(10.619 -0.0614202 0)
(11.1881 0.270114 0)
(11.2369 0.367461 0)
(11.8005 0.386671 0)
(11.6592 0.311452 0)
(11.5809 0.180346 0)
(11.4526 -0.0214794 0)
(11.0067 -0.0916814 0)
(10.89 -0.155261 0)
(10.1327 -0.257853 0)
(9.76974 -0.349796 0)
(9.14468 -0.427191 0)
(8.93588 -0.453567 0)
(8.80671 -0.469922 0)
(8.50608 -0.377728 0)
(8.90938 -0.278502 0)
(8.55245 -0.203107 0)
(8.80747 -0.0876285 0)
(8.73749 0.0237999 0)
(8.784 0.0433382 0)
(8.9322 0.0487404 0)
(8.41868 0.0243868 0)
(9.1229 0.0655798 0)
(8.57602 -0.0632201 0)
(8.93731 -0.087079 0)
(9.05774 -0.120879 0)
(9.05 -0.182332 0)
(9.75531 -0.132213 0)
(9.52764 -0.185437 0)
(10.4571 -0.0532228 0)
(10.161 -0.026297 0)
(10.9063 0.0594931 0)
(10.6743 0.144522 0)
(10.6237 0.0746091 0)
(10.4967 0.155447 0)
(9.78207 0.109885 0)
(12.0908 0.84562 -1.05164e-17)
(7.88618 -1.08049 -1.76796e-17)
(11.4615 0.520802 3.09724e-17)
(4.4014 -4.83579 -8.38266e-17)
(13.3382 -0.709702 1.02269e-17)
(6.9516 1.04839 1.70457e-17)
(12.6928 -0.0743431 -2.99727e-17)
(4.07344 4.93776 8.15091e-17)
(-6.99942 0.472522 0)
(3.3077 -0.866069 0)
(2.3125 3.0647 0)
(-3.9212 1.37069 0)
(-0.199989 -2.79238 3.03963e-17)
(-3.82538 -3.23599 0)
(-5.21495 3.82215 0)
(4.79749 -2.95972 0)
(1.23866 -1.30476 0)
(-2.31831 -0.178623 0)
(4.39697 1.27985 0)
(0.829024 1.18922 0)
(-1.42969 -0.469235 0)
(3.52509 -0.0996777 0)
(1.3241 0.650567 0)
(2.06321 0.982206 0)
(1.50488 0.654099 0)
(1.98498 0.543234 0)
(1.77025 0.503791 0)
(1.72754 0.538575 0)
(1.4503 0.729939 0)
(1.24994 0.587788 0)
(0.93305 0.274649 0)
(1.01397 0.315607 0)
(1.16617 0.210197 0)
(0.874616 0.0627205 0)
(1.08082 0.110189 0)
(1.81087 0.274715 0)
(1.05026 0.0949834 0)
(1.54476 -0.000508247 0)
(2.11275 0.527953 0)
(1.92719 0.346148 0)
(1.67637 0.0543607 0)
(2.53123 0.333357 0)
(2.43373 0.303784 0)
(2.35272 -0.0162464 0)
(2.74211 -0.019127 0)
(3.05434 -0.00158812 0)
(3.11404 -0.205953 0)
(3.49838 -0.0677293 0)
(3.69395 -0.0427303 0)
(3.89252 0.012616 0)
(4.13548 0.255257 0)
(4.38637 0.513511 0)
(4.17373 0.569507 0)
(4.49196 0.776892 0)
(4.23225 0.912219 0)
(4.28389 0.425481 0)
(-3.31826 -0.548282 0)
(0.977772 -2.19008 0)
(-2.81052 0.0700898 0)
(-0.648368 2.06347 0)
(1.17346 -1.65656 0)
(-0.433969 -0.749529 0)
(-0.656793 0.843966 0)
(1.53376 0.00863519 0)
(1.42812 0.136056 0)
(1.54973 0.409881 0)
(1.6148 0.542382 0)
(1.71287 0.449438 0)
(1.74068 0.279197 0)
(2.47594 -0.0165411 0)
(2.3047 -0.230987 0)
(1.98925 -0.338109 0)
(2.59252 -0.55699 0)
(1.8886 -0.506871 0)
(2.31523 -0.816219 0)
(2.29809 -0.717021 0)
(2.19377 -0.339969 0)
(2.36691 -0.50611 0)
(2.36116 -0.440087 0)
(3.22814 -0.241677 0)
(2.47855 -0.144439 0)
(3.0698 -0.304761 0)
(3.44945 -0.384315 0)
(3.25554 -0.372172 0)
(3.30248 -0.450077 0)
(3.7233 -0.598158 0)
(3.44427 -0.658255 0)
(3.56053 -0.59894 0)
(3.65111 -0.604587 0)
(3.60234 -0.441372 0)
(3.70993 -0.219256 0)
(3.98392 -0.0310926 0)
(4.23101 0.136349 0)
(4.19715 0.374104 0)
(4.78598 0.527128 0)
(5.14814 0.131308 0)
(10.7854 -1.38963 0)
(9.07509 2.65646 0)
(11.2071 -0.377054 0)
(11.227 6.61594 0)
(10.0521 -1.04084 0)
(9.92177 2.72336 0)
(10.8108 0.507239 0)
(11.5584 3.80205 0)
(9.74873 -0.274646 0)
(10.2552 0.993873 0)
(10.2274 0.50604 0)
(11.2278 1.09894 0)
(9.9346 -0.0395339 0)
(10.0779 0.147691 0)
(10.2965 0.153794 0)
(10.8256 0.236576 0)
(11.5779 5.86076 4.40697e-17)
(16.9144 4.25627 -6.97757e-17)
(13.126 2.18399 0)
(14.1874 0.157626 0)
(11.7272 0.617786 0)
(12.9302 -0.128275 0)
(11.4275 0.231939 0)
(12.2694 0.164247 0)
(7.68296 3.24161 0)
(11.6069 2.06566 0)
(6.78251 0.417531 0)
(9.24566 0.0224429 0)
(13.2867 -0.640267 0)
(13.6474 -1.21348 0)
(13.819 -0.589916 0)
(14.0773 -0.477105 0)
(13.4839 -0.092832 0)
(13.8785 0.237903 0)
(14.0812 0.428915 0)
(14.0171 0.528778 0)
(12.8328 0.153824 0)
(13.0699 0.15333 0)
(13.1895 -0.0108693 0)
(13.1843 -0.0588622 0)
(9.01791 0.43442 0)
(8.65494 0.405849 0)
(9.09462 0.204762 0)
(7.41968 0.324501 0)
(8.5193 -0.204081 0)
(9.00497 -0.07886 0)
(8.41206 -0.083659 0)
(8.63543 -0.151227 0)
(8.99881 -0.0572507 0)
(9.6428 0.100566 0)
(9.70051 0.25202 0)
(10.2086 0.324577 0)
(10.418 0.358035 0)
(10.8111 0.298865 0)
(11.3477 0.250719 0)
(11.3108 0.252082 0)
(11.8718 0.194996 0)
(11.5191 0.227575 0)
(11.8008 0.163131 0)
(11.3947 0.20561 0)
(11.1908 0.163853 0)
(10.9936 0.130959 0)
(10.5966 0.124063 0)
(10.9412 0.023765 0)
(10.2455 0.0730663 0)
(10.8217 -0.0223566 0)
(10.4095 -0.0275279 0)
(10.829 -0.0809146 0)
(10.7103 -0.0915577 0)
(10.6483 -0.0977787 0)
(10.8888 -0.149483 0)
(10.2591 -0.0389389 0)
(10.534 -0.0958124 0)
(9.8089 0.0120138 0)
(9.92702 -0.000237824 0)
(9.5723 0.0782367 0)
(9.57643 0.140088 0)
(9.76559 0.197161 0)
(9.6398 0.308202 0)
(10.3212 0.0919797 0)
(14.3853 -0.622412 0)
(14.2606 -0.612439 0)
(14.2767 -0.676476 0)
(14.037 -0.393498 0)
(13.8695 -0.499442 0)
(13.8315 -0.684244 0)
(13.5543 -0.619644 0)
(13.52 -0.542896 0)
(13.415 -0.336135 0)
(13.557 -0.34941 0)
(13.5522 -0.22581 0)
(13.5457 -0.263626 0)
(13.5963 -0.319222 0)
(13.476 -0.377628 0)
(13.6358 -0.582406 0)
(13.4096 -0.524536 0)
(13.5383 -0.680707 0)
(13.2508 -0.498328 0)
(13.2907 -0.535093 0)
(13.1301 -0.375657 0)
(13.0722 -0.277487 0)
(13.1073 -0.283357 0)
(12.9241 -0.129042 0)
(13.0824 -0.350725 0)
(12.8485 -0.22235 0)
(13.004 -0.479837 0)
(12.8036 -0.434642 0)
(12.8423 -0.5879 0)
(12.7148 -0.655212 0)
(12.5638 -0.558407 0)
(12.6018 -0.706426 0)
(12.3239 -0.363203 0)
(12.4756 -0.497184 0)
(12.1622 -0.0984549 0)
(12.3467 -0.165595 0)
(12.1242 0.0238663 0)
(12.3626 0.0393292 0)
(12.3205 -0.108063 0)
(12.4753 -0.0330312 0)
(12.6084 -0.373194 0)
(14.0369 0.421431 0)
(14.0616 0.329455 0)
(14.0336 0.205201 0)
(13.8069 0.186069 0)
(13.5844 0.127396 0)
(13.3766 0.0637014 0)
(13.2603 0.122417 0)
(13.1679 0.144732 0)
(13.1511 0.266771 0)
(13.1993 0.228568 0)
(13.2369 0.283844 0)
(13.2339 0.212778 0)
(13.1884 0.1793 0)
(13.1478 0.140083 0)
(13.1414 0.094889 0)
(13.0884 0.181956 0)
(13.0627 0.161422 0)
(12.9384 0.293854 0)
(12.9205 0.277904 0)
(12.8219 0.361916 0)
(12.87 0.362653 0)
(12.8634 0.343387 0)
(12.9257 0.359149 0)
(12.9538 0.256397 0)
(12.9376 0.282986 0)
(12.9478 0.157425 0)
(12.8211 0.195078 0)
(12.8021 0.119427 0)
(12.6234 0.149893 0)
(12.5745 0.173599 0)
(12.4387 0.179653 0)
(12.3388 0.252394 0)
(12.3222 0.22238 0)
(12.19 0.29026 0)
(12.3448 0.223646 0)
(12.2412 0.284265 0)
(12.4757 0.198837 0)
(12.4095 0.169093 0)
(12.5618 0.0829186 0)
(12.4694 -0.0353363 0)
(13.1768 -0.122619 0)
(13.1405 -0.185708 0)
(13.1688 -0.296206 0)
(12.9918 -0.325232 0)
(12.8155 -0.323578 0)
(12.5519 -0.333236 0)
(12.4757 -0.301166 0)
(12.3149 -0.326472 0)
(12.3427 -0.267527 0)
(12.3107 -0.299927 0)
(12.3585 -0.262451 0)
(12.2557 -0.30392 0)
(12.1849 -0.329994 0)
(12.1185 -0.349145 0)
(12.0706 -0.391529 0)
(12.0009 -0.353918 0)
(11.8629 -0.413244 0)
(11.732 -0.371305 0)
(11.6496 -0.420623 0)
(11.5859 -0.38729 0)
(11.6481 -0.367556 0)
(11.5936 -0.372397 0)
(11.7108 -0.331021 0)
(11.5839 -0.399388 0)
(11.6538 -0.374069 0)
(11.4706 -0.463126 0)
(11.4318 -0.44833 0)
(11.2517 -0.491266 0)
(11.0974 -0.490086 0)
(10.988 -0.460877 0)
(10.8055 -0.473466 0)
(10.7858 -0.37301 0)
(10.6528 -0.378683 0)
(10.6425 -0.267304 0)
(10.685 -0.270132 0)
(10.6272 -0.215189 0)
(10.8203 -0.213652 0)
(10.6105 -0.245799 0)
(10.8072 -0.256084 0)
(10.4816 -0.314576 0)
)
;

boundaryField
{
    inlet
    {
        type            fixedValue;
        value           uniform (10 0 0);
    }
    outlet
    {
        type            zeroGradient;
    }
    obstacle
    {
        type            noSlip;
    }
    upperWall
    {
        type            noSlip;
    }
    lowerWall
    {
        type            noSlip;
    }
    frontAndBack
    {
        type            empty;
    }
}


// ************************************************************************* //
