/*--------------------------------*- C++ -*----------------------------------*\
  =========                 |
  \\      /  F ield         | OpenFOAM: The Open Source CFD Toolbox
   \\    /   O peration     | Website:  https://openfoam.org
    \\  /    A nd           | Version:  10
     \\/     M anipulation  |
\*---------------------------------------------------------------------------*/
FoamFile
{
    format      ascii;
    class       volVectorField;
    location    "8.5";
    object      U;
}
// * * * * * * * * * * * * * * * * * * * * * * * * * * * * * * * * * * * * * //

dimensions      [0 1 -1 0 0 0 0];

internalField   nonuniform List<vector> 
400
(
(-0.000157502 0.00013923 0)
(-0.00117507 0.000436793 0)
(-0.00289504 0.000545162 0)
(-0.00466003 0.000580988 0)
(-0.00648683 0.000599923 0)
(-0.00833689 0.000619647 0)
(-0.010196 0.000639358 0)
(-0.0120412 0.00065153 0)
(-0.0138268 0.000645545 0)
(-0.0154797 0.000607857 0)
(-0.0168935 0.000522322 0)
(-0.0179238 0.000371985 0)
(-0.018392 0.000143689 0)
(-0.0180943 -0.000177107 0)
(-0.0168383 -0.000574085 0)
(-0.0145048 -0.0010007 0)
(-0.0111496 -0.00136135 0)
(-0.00715793 -0.00151578 0)
(-0.00285038 -0.00129882 0)
(-0.000311357 -0.000454671 0)
(-0.000506695 0.00119777 0)
(-0.00264033 0.00249282 0)
(-0.0059097 0.00297675 0)
(-0.00926172 0.00313535 0)
(-0.0126921 0.00318643 0)
(-0.0161127 0.00320118 0)
(-0.0194725 0.00318034 0)
(-0.0227115 0.00309688 0)
(-0.0257389 0.00291053 0)
(-0.0284252 0.00257104 0)
(-0.030595 0.00202146 0)
(-0.0320222 0.0012036 0)
(-0.0324499 6.91308e-05 0)
(-0.0315872 -0.00138718 0)
(-0.0291619 -0.00309142 0)
(-0.0250265 -0.00484853 0)
(-0.0192942 -0.00629197 0)
(-0.0125532 -0.00688524 0)
(-0.00533205 -0.006005 0)
(-0.000813732 -0.00266529 0)
(-0.000662211 0.00310051 0)
(-0.00331987 0.00584903 0)
(-0.00731275 0.00686819 0)
(-0.0113767 0.0071851 0)
(-0.015509 0.00724566 0)
(-0.0196037 0.00719608 0)
(-0.0236002 0.0070432 0)
(-0.0274311 0.00673801 0)
(-0.0309976 0.00620435 0)
(-0.0341598 0.00534642 0)
(-0.0367289 0.00405581 0)
(-0.0384622 0.0022246 0)
(-0.0390545 -0.000232003 0)
(-0.038148 -0.00332268 0)
(-0.0353887 -0.00690765 0)
(-0.0305237 -0.0106001 0)
(-0.0236022 -0.013656 0)
(-0.0153091 -0.0149261 0)
(-0.00633032 -0.0130831 0)
(-0.000864913 -0.00612515 0)
(-0.000713239 0.00513736 0)
(-0.00359064 0.00944688 0)
(-0.00790522 0.0110156 0)
(-0.0122805 0.0114786 0)
(-0.0167283 0.0115372 0)
(-0.0211452 0.0114188 0)
(-0.0254807 0.0111384 0)
(-0.0296812 0.010627 0)
(-0.0336636 0.00977416 0)
(-0.0373029 0.00843635 0)
(-0.040416 0.00644432 0)
(-0.0427478 0.00362157 0)
(-0.0439609 -0.000177228 0)
(-0.0436009 -0.00500411 0)
(-0.0411325 -0.010718 0)
(-0.0360605 -0.0167564 0)
(-0.0281842 -0.0219232 0)
(-0.0182063 -0.0242006 0)
(-0.00704787 -0.0211566 0)
(-0.000658697 -0.00964941 0)
(-0.000716398 0.00726236 0)
(-0.00367212 0.013222 0)
(-0.00813034 0.0153686 0)
(-0.0126547 0.0159906 0)
(-0.0172748 0.0160658 0)
(-0.0219004 0.0159111 0)
(-0.0265047 0.0155544 0)
(-0.0310633 0.0149108 0)
(-0.0355276 0.0138368 0)
(-0.0398085 0.0121382 0)
(-0.043751 0.00957095 0)
(-0.0471014 0.00585453 0)
(-0.0494667 0.000719888 0)
(-0.0502887 -0.00599943 0)
(-0.0487832 -0.0142575 0)
(-0.0440174 -0.0233911 0)
(-0.035253 -0.0316716 0)
(-0.0228878 -0.0357638 0)
(-0.00809181 -0.0311451 0)
(-0.000207613 -0.0133844 0)
(-0.000699757 0.00940022 0)
(-0.00367348 0.017071 0)
(-0.00820165 0.0198262 0)
(-0.0128125 0.0206312 0)
(-0.0175523 0.0207596 0)
(-0.022351 0.020629 0)
(-0.0272149 0.0202885 0)
(-0.0321622 0.0196448 0)
(-0.0371975 0.0185273 0)
(-0.0422938 0.0166908 0)
(-0.047359 0.0138053 0)
(-0.0521808 0.00945338 0)
(-0.0563561 0.00316573 0)
(-0.0592416 -0.00549181 0)
(-0.0597769 -0.0167346 0)
(-0.0564041 -0.0300253 0)
(-0.0473016 -0.0431983 0)
(-0.0316033 -0.0509999 0)
(-0.0104139 -0.044405 0)
(0.000516929 -0.0174259 0)
(-0.000672958 0.0115156 0)
(-0.00363622 0.0209442 0)
(-0.00819914 0.0243389 0)
(-0.0128621 0.0253551 0)
(-0.0176868 0.025581 0)
(-0.0226261 0.0255488 0)
(-0.0277264 0.0253416 0)
(-0.0330618 0.0248714 0)
(-0.0387108 0.0239539 0)
(-0.0447421 0.0223035 0)
(-0.051181 0.0195044 0)
(-0.057941 0.0149786 0)
(-0.064735 0.00797679 0)
(-0.0709902 -0.00234378 0)
(-0.0754994 -0.0166719 0)
(-0.0759208 -0.0353124 0)
(-0.0683263 -0.0563541 0)
(-0.0484174 -0.0721131 0)
(-0.0167622 -0.0637737 0)
(0.00115406 -0.0227352 0)
(-0.000638004 0.0135902 0)
(-0.00357189 0.0248168 0)
(-0.00814358 0.0288786 0)
(-0.0128227 0.0301287 0)
(-0.017684 0.030491 0)
(-0.0227026 0.0306296 0)
(-0.0279685 0.0306786 0)
(-0.0336209 0.0305765 0)
(-0.0398336 0.0301539 0)
(-0.0468117 0.0291184 0)
(-0.0547733 0.0270031 0)
(-0.0639037 0.0230988 0)
(-0.0742592 0.0163918 0)
(-0.0856176 0.00552624 0)
(-0.0971906 -0.0112654 0)
(-0.105615 -0.0361975 0)
(-0.102598 -0.0699798 0)
(-0.0776873 -0.101806 0)
(-0.03316 -0.0944832 0)
(-0.000121694 -0.0326088 0)
(-0.000596159 0.0156086 0)
(-0.00348647 0.0286685 0)
(-0.00804206 0.0334141 0)
(-0.0126907 0.0349039 0)
(-0.017516 0.0354219 0)
(-0.0225118 0.035784 0)
(-0.0278082 0.0361958 0)
(-0.0336098 0.0366508 0)
(-0.0401944 0.0370361 0)
(-0.0479345 0.0371172 0)
(-0.0573169 0.0364742 0)
(-0.0689565 0.0344141 0)
(-0.0836308 0.029862 0)
(-0.102201 0.0210063 0)
(-0.124352 0.0040202 0)
(-0.144529 -0.0283844 0)
(-0.147303 -0.0827801 0)
(-0.117691 -0.141638 0)
(-0.0664986 -0.141936 0)
(-0.00788656 -0.0546566 0)
(-0.00055182 0.0175606 0)
(-0.00339461 0.0324828 0)
(-0.00791402 0.037909 0)
(-0.0124758 0.039615 0)
(-0.0171685 0.0402721 0)
(-0.021996 0.0408694 0)
(-0.027118 0.0417062 0)
(-0.0327921 0.042863 0)
(-0.0393862 0.0443366 0)
(-0.0474323 0.0460422 0)
(-0.0577067 0.0477697 0)
(-0.0713472 0.0491149 0)
(-0.0900548 0.0492859 0)
(-0.116063 0.0459447 0)
(-0.149264 0.0310882 0)
(-0.179172 -0.0118283 0)
(-0.184195 -0.0962316 0)
(-0.156062 -0.187248 0)
(-0.11163 -0.203493 0)
(-0.02618 -0.101885 0)
(-0.000515329 0.0194498 0)
(-0.00332902 0.0362546 0)
(-0.00780782 0.0423223 0)
(-0.0122238 0.0441757 0)
(-0.0166705 0.044902 0)
(-0.0211489 0.0456823 0)
(-0.0258293 0.0469253 0)
(-0.0309906 0.0488241 0)
(-0.0370419 0.0515362 0)
(-0.0446034 0.055227 0)
(-0.0546369 0.0600868 0)
(-0.0686163 0.0662872 0)
(-0.0887295 0.073397 0)
(-0.117763 0.0775019 0)
(-0.154015 0.0637839 0)
(-0.184298 0.00684252 0)
(-0.188158 -0.106109 0)
(-0.168978 -0.225038 0)
(-0.138976 -0.273449 0)
(-0.0455265 -0.190818 0)
(-0.000508549 0.0213147 0)
(-0.00335621 0.0400274 0)
(-0.00782083 0.0466639 0)
(-0.0120369 0.0485427 0)
(-0.0161177 0.0491966 0)
(-0.0200506 0.0500178 0)
(-0.0239934 0.0515313 0)
(-0.0281988 0.0540484 0)
(-0.0330312 0.05791 0)
(-0.0390423 0.0635818 0)
(-0.0470926 0.0717368 0)
(-0.058443 0.0831191 0)
(-0.0745856 0.0971309 0)
(-0.0974112 0.106962 0)
(-0.124072 0.0918116 0)
(-0.144572 0.022503 0)
(-0.147485 -0.105887 0)
(-0.139362 -0.245326 0)
(-0.128657 -0.335867 0)
(-0.0485942 -0.299628 0)
(-0.000562304 0.0232066 0)
(-0.00355958 0.0437653 0)
(-0.0080858 0.0507538 0)
(-0.0120816 0.0524377 0)
(-0.0156996 0.0528303 0)
(-0.0189013 0.0535005 0)
(-0.021822 0.0550458 0)
(-0.0246427 0.0578656 0)
(-0.0275851 0.0624291 0)
(-0.0309556 0.0694021 0)
(-0.0351877 0.0797322 0)
(-0.0407821 0.0943028 0)
(-0.0479542 0.112014 0)
(-0.0574834 0.123817 0)
(-0.068048 0.107249 0)
(-0.074958 0.0324991 0)
(-0.0782267 -0.0974382 0)
(-0.0801478 -0.242855 0)
(-0.0960053 -0.364471 0)
(-0.0364575 -0.380416 0)
(-0.000780843 0.0254458 0)
(-0.00422175 0.0480886 0)
(-0.00892026 0.0553569 0)
(-0.0125956 0.0566368 0)
(-0.0156018 0.0563961 0)
(-0.0179246 0.0564675 0)
(-0.0196481 0.0575413 0)
(-0.0208424 0.0600648 0)
(-0.0215537 0.0645384 0)
(-0.0217776 0.0716417 0)
(-0.0214606 0.0822991 0)
(-0.0202415 0.09714 0)
(-0.0174732 0.11485 0)
(-0.0127599 0.126046 0)
(-0.00805977 0.109988 0)
(-0.00311328 0.0366624 0)
(-0.0108342 -0.0853798 0)
(-0.0236879 -0.221994 0)
(-0.065445 -0.365928 0)
(-0.0221972 -0.434609 0)
(-0.00112637 0.0281994 0)
(-0.00503846 0.0516538 0)
(-0.0102364 0.0581848 0)
(-0.0138475 0.0583426 0)
(-0.0164184 0.0573731 0)
(-0.017833 0.0569549 0)
(-0.0182405 0.0576084 0)
(-0.0176742 0.0596412 0)
(-0.0160538 0.063459 0)
(-0.0131132 0.0696054 0)
(-0.0084817 0.0787764 0)
(-0.00116752 0.0911712 0)
(0.00964905 0.105664 0)
(0.0253486 0.114161 0)
(0.039712 0.100048 0)
(0.0523982 0.036381 0)
(0.0400135 -0.0700018 0)
(0.021468 -0.18879 0)
(-0.0422055 -0.351389 0)
(-0.010092 -0.471343 0)
(-0.00320812 0.0304869 0)
(-0.00948083 0.0588767 0)
(-0.013996 0.0652978 0)
(-0.0165368 0.0648349 0)
(-0.0177134 0.0621172 0)
(-0.0178778 0.0598614 0)
(-0.0170273 0.0587082 0)
(-0.0150071 0.0589628 0)
(-0.0115395 0.0609087 0)
(-0.00614763 0.0648566 0)
(0.00163145 0.0712045 0)
(0.0131083 0.0798359 0)
(0.0284725 0.08963 0)
(0.0493591 0.0944707 0)
(0.0678906 0.0832084 0)
(0.0852724 0.035532 0)
(0.0705735 -0.0483211 0)
(0.0516328 -0.146427 0)
(-0.0261218 -0.328028 0)
(0.00280877 -0.493425 0)
(-0.000966132 0.0439478 0)
(-0.00773745 0.0604146 0)
(-0.0172779 0.062624 0)
(-0.0198534 0.058686 0)
(-0.0213975 0.0556122 0)
(-0.0207959 0.0535896 0)
(-0.0187785 0.052553 0)
(-0.0152248 0.0524077 0)
(-0.00994048 0.053286 0)
(-0.00242526 0.055298 0)
(0.00776787 0.0588313 0)
(0.0218005 0.0636507 0)
(0.0391153 0.0687936 0)
(0.0620949 0.0703799 0)
(0.0807761 0.0618423 0)
(0.100772 0.030178 0)
(0.0843718 -0.0296802 0)
(0.0684853 -0.106263 0)
(-0.00878014 -0.303895 0)
(0.0219479 -0.502953 0)
(-0.012558 0.0322499 0)
(-0.0233136 0.0803355 0)
(-0.0213758 0.0802937 0)
(-0.0258347 0.0753091 0)
(-0.0258797 0.0679086 0)
(-0.0241122 0.0618022 0)
(-0.0202623 0.0569265 0)
(-0.0145189 0.0532019 0)
(-0.00693894 0.0506383 0)
(0.00291582 0.0490322 0)
(0.015011 0.0486569 0)
(0.0303208 0.0490548 0)
(0.0474189 0.0505256 0)
(0.069658 0.0501715 0)
(0.085016 0.0462446 0)
(0.106626 0.0302553 0)
(0.0942213 -0.00566479 0)
(0.101945 -0.0660321 0)
(0.0402231 -0.27469 0)
(0.0578724 -0.490384 0)
(-0.0776378 0.0959211 0)
(-0.0632588 0.0588013 0)
(-0.0653352 0.0599578 0)
(-0.0429192 0.053322 0)
(-0.0252253 0.0463572 0)
(-0.00468037 0.0411939 0)
(0.0147161 0.0374323 0)
(0.0344834 0.0342417 0)
(0.0528324 0.0319363 0)
(0.0727852 0.0298459 0)
(0.0901967 0.0286898 0)
(0.112434 0.0276556 0)
(0.128178 0.0270859 0)
(0.157321 0.0261958 0)
(0.167416 0.0210501 0)
(0.203179 0.0122536 0)
(0.192388 -0.0211198 0)
(0.223665 -0.0744613 0)
(0.154533 -0.251991 0)
(0.125046 -0.433628 0)
(0.119398 0.140773 0)
(0.152021 0.0860909 0)
(0.228466 0.0635115 0)
(0.283926 0.0480519 0)
(0.325339 0.037419 0)
(0.363647 0.0296556 0)
(0.392348 0.0242224 0)
(0.423561 0.0201819 0)
(0.443492 0.0172762 0)
(0.472076 0.01498 0)
(0.484879 0.0132809 0)
(0.514306 0.0119731 0)
(0.519794 0.0108512 0)
(0.552192 0.00968 0)
(0.547308 0.00767647 0)
(0.579647 0.00327592 0)
(0.548431 -0.00585794 0)
(0.553989 -0.0272006 0)
(0.420235 -0.0732618 0)
(0.275305 -0.152053 0)
)
;

boundaryField
{
    movingWall
    {
        type            fixedValue;
        value           uniform (1 0 0);
    }
    fixedWalls
    {
        type            noSlip;
    }
    frontAndBack
    {
        type            empty;
    }
}


// ************************************************************************* //
