/*--------------------------------*- C++ -*----------------------------------*\
  =========                 |
  \\      /  F ield         | OpenFOAM: The Open Source CFD Toolbox
   \\    /   O peration     | Website:  https://openfoam.org
    \\  /    A nd           | Version:  10
     \\/     M anipulation  |
\*---------------------------------------------------------------------------*/
FoamFile
{
    format      ascii;
    class       volScalarField;
    location    "9.425";
    object      p;
}
// * * * * * * * * * * * * * * * * * * * * * * * * * * * * * * * * * * * * * //

dimensions      [0 2 -2 0 0 0 0];

internalField   nonuniform List<scalar> 
400
(
-1.56455e-08
-3.1463e-05
2.64502e-05
0.000139291
0.000315812
0.000559316
0.000875209
0.0012706
0.00175294
0.00232829
0.00299904
0.00376069
0.00459688
0.00547423
0.00633616
0.0071048
0.00768963
0.00802712
0.00813498
0.00798923
3.50365e-05
3.17072e-06
6.99888e-05
0.000186344
0.00036253
0.000602676
0.00091253
0.00129914
0.0017698
0.0023308
0.00298543
0.00373074
0.00455116
0.00541812
0.00627596
0.00704502
0.00762764
0.00795386
0.00804851
0.00788299
-3.8074e-05
-7.97469e-05
-1.46775e-05
9.65896e-05
0.000265034
0.000494918
0.000792502
0.00116579
0.00162369
0.00217521
0.00282741
0.00358205
0.00443145
0.00534944
0.00627742
0.00712153
0.00775511
0.0080767
0.00811819
0.00787938
-0.000196861
-0.000245282
-0.000184777
-8.26675e-05
7.27774e-05
0.000286072
0.000564234
0.000916659
0.00135466
0.00189124
0.00253981
0.00331029
0.00420288
0.00519915
0.00624187
0.00721637
0.00794715
0.0082614
0.00819601
0.00783358
-0.000451813
-0.000505663
-0.000453327
-0.000365256
-0.000229042
-3.98708e-05
0.000210086
0.000531768
0.000939272
0.00145037
0.00208632
0.00286939
0.00381441
0.0049138
0.00611967
0.00729597
0.00819157
0.00849412
0.00824041
0.00767627
-0.000801154
-0.000860107
-0.000819525
-0.000750722
-0.00064097
-0.000485484
-0.000276095
-8.18839e-07
0.000356628
0.000818261
0.00141312
0.00217733
0.00314654
0.00433666
0.00573781
0.00720428
0.00837861
0.00867601
0.00812155
0.00723436
-0.00123813
-0.0013025
-0.0012772
-0.0012334
-0.00115862
-0.00104876
-0.000896511
-0.000690616
-0.000414748
-4.54486e-05
0.000450807
0.00112045
0.00202256
0.00321746
0.00473708
0.00652731
0.0081305
0.00847589
0.00761247
0.00629848
-0.00175326
-0.00182365
-0.00181696
-0.001804
-0.00177334
-0.00172271
-0.00164752
-0.00154025
-0.0013897
-0.00117833
-0.000878982
-0.000452684
0.000155402
0.0010323
0.00231252
0.00416615
0.00627931
0.00705865
0.00636676
0.00490565
-0.00233452
-0.00241149
-0.00242588
-0.00244859
-0.00247031
-0.00249213
-0.0025147
-0.00253833
-0.00256372
-0.00259222
-0.00262731
-0.00268368
-0.0028125
-0.00305026
-0.00312955
-0.00221305
0.000157301
0.00272247
0.00401124
0.0040689
-0.00296767
-0.00305145
-0.00308739
-0.00314795
-0.00322692
-0.0033305
-0.00346734
-0.00365025
-0.00390025
-0.0042534
-0.00477474
-0.00559424
-0.00701095
-0.00941638
-0.0126171
-0.0143202
-0.0122245
-0.0066324
-0.0007952
0.00349928
-0.00363726
-0.00372761
-0.00378232
-0.00387845
-0.00401328
-0.00419982
-0.00445677
-0.00481292
-0.00531643
-0.00605217
-0.00717843
-0.00899685
-0.0121253
-0.0174766
-0.0248687
-0.0305774
-0.0293194
-0.0207309
-0.0102967
-0.00149924
-0.004328
-0.00442336
-0.00448823
-0.00461045
-0.00479055
-0.00504907
-0.0054143
-0.00593016
-0.00667061
-0.00776549
-0.00945737
-0.0121995
-0.0168133
-0.0243735
-0.0346434
-0.0427499
-0.0426874
-0.0337069
-0.0224376
-0.010854
-0.00502984
-0.005129
-0.00519055
-0.00532207
-0.00552612
-0.00583076
-0.00627097
-0.00689934
-0.00780322
-0.00913049
-0.0111511
-0.0143634
-0.0195987
-0.0277077
-0.0385227
-0.0466788
-0.0471494
-0.0390126
-0.029682
-0.0183749
-0.00573276
-0.00582512
-0.00585368
-0.00596487
-0.00616348
-0.00648117
-0.00695207
-0.00762931
-0.0085986
-0.00999603
-0.0120551
-0.0152391
-0.0202534
-0.027494
-0.0368562
-0.0432315
-0.0439652
-0.0369221
-0.0310332
-0.0206748
-0.00646256
-0.00655429
-0.00652346
-0.00658814
-0.00673878
-0.00701833
-0.0074602
-0.008112
-0.00904935
-0.0103832
-0.0122387
-0.0150526
-0.0191978
-0.024752
-0.0315686
-0.0359338
-0.036399
-0.0303328
-0.0276288
-0.0173302
-0.00730592
-0.00719831
-0.00702619
-0.0069548
-0.00702881
-0.0072629
-0.00767003
-0.00827507
-0.00913695
-0.0102905
-0.0119319
-0.014207
-0.0173523
-0.0212468
-0.0257919
-0.0282618
-0.0282692
-0.0228568
-0.0220586
-0.00805503
-0.00774893
-0.00813312
-0.00776649
-0.00770164
-0.0076242
-0.00770192
-0.0079464
-0.00838974
-0.00907923
-0.0100518
-0.0114214
-0.0132514
-0.0156698
-0.018436
-0.0214965
-0.0227913
-0.0222975
-0.0170793
-0.014812
0.0098676
-0.0111191
-0.00854662
-0.0078181
-0.0071191
-0.00695533
-0.00705752
-0.00737112
-0.00785755
-0.00854394
-0.00944792
-0.010671
-0.0122253
-0.0142311
-0.016353
-0.0185223
-0.0189645
-0.0176829
-0.0108048
-0.00177329
0.041438
-0.00770914
-0.0106399
-0.00942307
-0.00931393
-0.00875435
-0.00844182
-0.00832975
-0.00844093
-0.0088296
-0.00948036
-0.0105107
-0.0118658
-0.0137866
-0.0158478
-0.0182072
-0.0184351
-0.0163209
-0.00263568
0.0218553
0.0983222
-0.0329544
-0.0077969
-0.00612532
-0.00527621
-0.00500224
-0.00515105
-0.00560498
-0.00617707
-0.0069582
-0.00787031
-0.00914182
-0.0105967
-0.0124178
-0.013849
-0.01456
-0.0108792
-2.98535e-05
0.033913
0.0993191
0.229502
)
;

boundaryField
{
    movingWall
    {
        type            zeroGradient;
    }
    fixedWalls
    {
        type            zeroGradient;
    }
    frontAndBack
    {
        type            empty;
    }
}


// ************************************************************************* //
