/*--------------------------------*- C++ -*----------------------------------*\
  =========                 |
  \\      /  F ield         | OpenFOAM: The Open Source CFD Toolbox
   \\    /   O peration     | Website:  https://openfoam.org
    \\  /    A nd           | Version:  10
     \\/     M anipulation  |
\*---------------------------------------------------------------------------*/
FoamFile
{
    format      ascii;
    class       volScalarField;
    location    "5.475";
    object      p;
}
// * * * * * * * * * * * * * * * * * * * * * * * * * * * * * * * * * * * * * //

dimensions      [0 2 -2 0 0 0 0];

internalField   nonuniform List<scalar> 
496
(
20.8993
20.1659
16.6218
10.9845
21.828
21.6549
17.3152
11.0345
26.9945
24.6339
16.6628
5.66607
35.1514
31.8587
27.3427
10.9229
2.26871
-7.61312
1.67178
-7.66633
-10.7192
-16.2021
-42.6484
-67.2288
-15.107
-19.5224
-21.4442
-22.1874
-15.7122
-21.2909
-24.2367
-24.9301
-10.2796
-11.0568
-16.482
-22.2093
-36.7506
-20.5032
-13.6324
-20.9621
-22.4444
-22.5379
-22.5661
-21.6904
-19.4786
-17.0567
-15.5021
-14.7195
-14.4653
-14.4651
-13.9973
-13.1399
-12.237
-12.0925
-12.2799
-12.429
-11.983
-11.2284
-10.5953
-9.99619
-9.64709
-8.99967
-8.44891
-7.49472
-6.38306
-5.14119
-3.78073
-2.85064
-1.83913
-1.40297
-0.941852
-1.03773
-1.11119
-0.945807
-1.29286
-1.24448
-1.33786
-1.25756
-0.867336
-0.465629
-24.8362
-25.0898
-24.5555
-22.3662
-19.4981
-17.0165
-15.3329
-14.4717
-14.2389
-14.226
-13.7506
-13.0605
-12.3678
-12.1881
-12.2703
-12.2923
-12.0127
-11.3302
-10.7559
-10.2481
-9.82722
-9.15274
-8.51768
-7.63488
-6.47973
-5.14571
-3.83813
-2.59167
-1.51671
-0.964172
-0.627358
-0.51181
-0.80074
-1.15482
-1.32196
-1.21565
-1.31867
-1.29558
-1.12966
-0.505004
-25.7297
-27.122
-25.6695
-22.701
-20.0659
-17.6058
-15.5489
-14.4953
-14.1579
-13.7805
-13.3799
-13.0735
-12.8344
-12.5811
-12.138
-11.8395
-11.4412
-11.3738
-11.2955
-11.3303
-10.9818
-10.2142
-8.97216
-7.57279
-6.22851
-4.56952
-3.26022
-2.26558
-1.40174
-0.899372
-1.02171
-1.59693
-1.80685
-2.43022
-2.41265
-2.3038
-1.83112
-1.15131
-0.94679
-0.619457
-25.8173
-25.15
-23.8363
-22.7777
-19.5329
-16.1566
-14.8943
-13.9849
-13.193
-12.3612
-12.7331
-13.2264
-13.677
-13.3626
-12.5881
-11.8572
-11.1921
-11.3673
-11.4504
-12.0592
-11.9431
-11.5906
-10.4344
-8.86343
-7.06989
-4.29136
-1.59667
1.38213
1.60113
1.73128
0.275563
-0.85076
-1.46538
-2.75112
-2.55092
-2.91154
-2.46077
-1.55294
-1.78575
-0.47628
39.6457
40.813
54.5602
67.2492
40.5865
42.3707
56.2001
68.9424
-33.7099
-39.9989
-36.9905
-32.238
-30.7554
-48.816
-33.4819
-20.3489
-27.5226
-27.9705
-26.8293
-24.906
-23.549
-19.8721
-15.6582
-13.7938
-12.6629
-12.4124
-12.2187
-12.3238
-12.4624
-12.2554
-11.9904
-11.7167
-11.4914
-11.4535
-11.6629
-12.1672
-11.8273
-11.3355
-10.033
-8.43974
-6.89041
-5.02236
-3.43175
-2.37906
-1.78392
-1.97407
-1.64635
-1.50144
-1.74144
-1.97133
-2.22118
-3.0682
-2.36497
-1.59223
-1.12413
0.109103
-35.7716
-31.1314
-22.2462
-27.8867
-27.0983
-19.4131
-17.1278
-16.283
-14.0428
-12.0066
-11.0992
-11.1199
-11.4994
-12.1511
-12.5127
-12.3777
-12.2395
-11.9846
-11.2935
-10.1528
-8.95931
-7.97979
-7.27009
-6.47322
-6.05857
-5.5307
-5.14124
-5.43743
-5.13014
-4.73208
-3.67967
-2.60585
-1.58824
-0.349151
-0.339745
-0.340253
-0.591804
-0.535873
-0.359839
-0.258706
36.4031
34.463
30.5369
16.9301
29.4417
27.6829
20.1903
9.84544
24.552
24.5937
20.557
14.1614
23.5437
23.1093
19.9361
14.1412
-32.5416
-56.0314
-4.88948
-11.2977
5.01958
-4.33451
5.49655
-4.32777
-27.2663
-18.4093
-24.855
-25.9127
-7.64289
-10.863
-18.7853
-23.4109
-12.49
-18.5314
-23.0181
-25.891
-12.0374
-17.2814
-20.5581
-22.5507
-23.7531
-25.5761
-25.9739
-23.67
-23.1548
-21.4537
-18.1574
-15.4615
-13.3094
-12.163
-11.508
-11.4789
-11.5367
-11.6782
-12.1349
-12.6723
-12.5948
-11.4486
-10.089
-8.18153
-6.74691
-5.4295
-5.4049
-5.21848
-5.51862
-6.30782
-6.28611
-6.9198
-6.27136
-5.90721
-4.70792
-2.80243
-0.610472
2.63207
3.06344
3.12458
1.72046
0.876215
0.663306
-0.17102
-24.6784
-25.3466
-25.1145
-23.5992
-22.2839
-20.6998
-17.7202
-14.9709
-13.6718
-13.4008
-13.2773
-13.2156
-12.4737
-11.8616
-11.7291
-11.7496
-11.7358
-11.0102
-10.1167
-8.95341
-7.92103
-6.97096
-6.16509
-6.05203
-5.90125
-6.1591
-6.0891
-6.1254
-5.49785
-4.61108
-3.65755
-2.52584
-1.71767
-0.925593
0.115811
0.686878
0.807346
0.567359
0.444413
-0.180406
-26.4993
-25.5795
-24.0466
-22.5637
-21.3097
-19.9293
-17.6414
-15.2528
-13.924
-13.5324
-13.366
-12.8453
-12.1394
-11.3815
-11.2542
-11.534
-11.6036
-11.0381
-9.85245
-8.59117
-7.44104
-6.69319
-6.17302
-5.85147
-5.55433
-5.36563
-5.1343
-4.67044
-4.23236
-3.65723
-3.39775
-3.1846
-2.70824
-1.79767
-0.460197
0.373063
0.941648
0.897041
0.72826
0.384008
-23.4106
-23.2896
-22.5142
-21.4709
-20.5447
-19.5054
-17.7288
-15.3593
-13.8402
-13.8812
-14.2696
-13.631
-12.2433
-11.2739
-11.294
-11.6327
-11.5439
-10.7239
-9.59439
-8.62865
-7.71741
-7.06555
-6.43901
-6.12903
-5.77238
-5.31851
-5.10552
-4.66679
-4.37164
-3.72855
-3.41603
-3.03289
-2.48766
-1.72716
-0.572898
0.226249
0.867728
0.949085
0.685469
0.342542
)
;

boundaryField
{
    inlet
    {
        type            zeroGradient;
    }
    outlet
    {
        type            fixedValue;
        value           uniform 0;
    }
    obstacle
    {
        type            zeroGradient;
    }
    upperWall
    {
        type            zeroGradient;
    }
    lowerWall
    {
        type            zeroGradient;
    }
    frontAndBack
    {
        type            empty;
    }
}


// ************************************************************************* //
