/*--------------------------------*- C++ -*----------------------------------*\
  =========                 |
  \\      /  F ield         | OpenFOAM: The Open Source CFD Toolbox
   \\    /   O peration     | Website:  https://openfoam.org
    \\  /    A nd           | Version:  10
     \\/     M anipulation  |
\*---------------------------------------------------------------------------*/
FoamFile
{
    format      ascii;
    class       volVectorField;
    location    "6.2";
    object      U;
}
// * * * * * * * * * * * * * * * * * * * * * * * * * * * * * * * * * * * * * //

dimensions      [0 1 -1 0 0 0 0];

internalField   nonuniform List<vector> 
400
(
(-0.00010664 9.78809e-05 0)
(-0.000884782 0.000335929 0)
(-0.00220701 0.000418032 0)
(-0.00352702 0.000436919 0)
(-0.00485772 0.000438984 0)
(-0.00615968 0.000437128 0)
(-0.00741208 0.000430574 0)
(-0.00859086 0.000414848 0)
(-0.00966158 0.000384593 0)
(-0.0105783 0.000333998 0)
(-0.0112829 0.000257234 0)
(-0.0117061 0.000149393 0)
(-0.0117698 6.66831e-06 0)
(-0.0113935 -0.000172028 0)
(-0.0105082 -0.000379218 0)
(-0.00907229 -0.000598059 0)
(-0.00710309 -0.00079546 0)
(-0.00475326 -0.000913516 0)
(-0.00210577 -0.000847946 0)
(-0.000348141 -0.000386167 0)
(-0.000370176 0.000895656 0)
(-0.00199199 0.00191043 0)
(-0.00446379 0.00224885 0)
(-0.00692018 0.00230828 0)
(-0.00936138 0.00227225 0)
(-0.0117094 0.00219443 0)
(-0.0139151 0.00207718 0)
(-0.0159294 0.00190805 0)
(-0.0176919 0.00167045 0)
(-0.0191286 0.00134616 0)
(-0.0201515 0.000916939 0)
(-0.0206607 0.000366694 0)
(-0.020549 -0.000313341 0)
(-0.0197069 -0.00111287 0)
(-0.0180437 -0.00199859 0)
(-0.0155129 -0.00290109 0)
(-0.0121594 -0.00369268 0)
(-0.00821552 -0.00414817 0)
(-0.00382491 -0.00387418 0)
(-0.000753559 -0.00205184 0)
(-0.00047814 0.0023166 0)
(-0.00246411 0.00443428 0)
(-0.00542869 0.0051169 0)
(-0.0083529 0.00520919 0)
(-0.0112422 0.00508479 0)
(-0.0140069 0.00485415 0)
(-0.0165909 0.00452738 0)
(-0.0189401 0.00408516 0)
(-0.0209886 0.00349912 0)
(-0.0226575 0.00273713 0)
(-0.0238529 0.0017668 0)
(-0.0244658 0.000560574 0)
(-0.0243684 -0.000894263 0)
(-0.0234278 -0.00258083 0)
(-0.0215284 -0.00443309 0)
(-0.0185934 -0.00631213 0)
(-0.0146484 -0.00795963 0)
(-0.00994939 -0.00891353 0)
(-0.00465513 -0.00837415 0)
(-0.000922283 -0.00466942 0)
(-0.000511727 0.00380827 0)
(-0.00265137 0.00709373 0)
(-0.00584062 0.00812409 0)
(-0.00897575 0.00823909 0)
(-0.0120753 0.0080191 0)
(-0.015049 0.0076335 0)
(-0.0178449 0.00709982 0)
(-0.0204131 0.00639172 0)
(-0.0226918 0.00546817 0)
(-0.0246033 0.0042806 0)
(-0.0260513 0.00277823 0)
(-0.0269164 0.000916636 0)
(-0.0270527 -0.00132928 0)
(-0.0262866 -0.00395293 0)
(-0.02444 -0.00686793 0)
(-0.0213634 -0.00987108 0)
(-0.0170155 -0.0125586 0)
(-0.0116575 -0.0141744 0)
(-0.00545991 -0.0134067 0)
(-0.00106404 -0.00756069 0)
(-0.00052231 0.00537526 0)
(-0.00275241 0.0099024 0)
(-0.00609244 0.0112996 0)
(-0.00937583 0.0114426 0)
(-0.0126351 0.0111337 0)
(-0.0157843 0.0106053 0)
(-0.018781 0.0098834 0)
(-0.0215856 0.00893481 0)
(-0.0241458 0.00770463 0)
(-0.026391 0.00612407 0)
(-0.0282245 0.00411571 0)
(-0.029515 0.00160395 0)
(-0.0300905 -0.00146817 0)
(-0.0297212 -0.00512151 0)
(-0.0281353 -0.00927289 0)
(-0.0250603 -0.0136657 0)
(-0.0203173 -0.0177263 0)
(-0.0141232 -0.0203103 0)
(-0.00665267 -0.0193969 0)
(-0.00127822 -0.0109875 0)
(-0.000529521 0.00699146 0)
(-0.00284454 0.0128313 0)
(-0.00633388 0.0146194 0)
(-0.00976871 0.014802 0)
(-0.013196 0.0144203 0)
(-0.0165366 0.013775 0)
(-0.0197619 0.0129029 0)
(-0.0228482 0.0117646 0)
(-0.0257598 0.0102906 0)
(-0.028441 0.00838786 0)
(-0.030803 0.00594261 0)
(-0.0327084 0.00282973 0)
(-0.0339614 -0.0010702 0)
(-0.0342646 -0.00583592 0)
(-0.0332164 -0.0114413 0)
(-0.0303539 -0.0176066 0)
(-0.0252555 -0.0235679 0)
(-0.0179741 -0.0276635 0)
(-0.00861207 -0.026822 0)
(-0.00165489 -0.0152509 0)
(-0.000538059 0.00865753 0)
(-0.00294919 0.0158861 0)
(-0.0066062 0.018092 0)
(-0.0102091 0.018328 0)
(-0.0138207 0.0178931 0)
(-0.0173711 0.0171641 0)
(-0.0208498 0.0161921 0)
(-0.0242555 0.0149344 0)
(-0.0275786 0.0133073 0)
(-0.0307912 0.0111912 0)
(-0.033829 0.00842717 0)
(-0.036568 0.0048188 0)
(-0.038795 0.000148225 0)
(-0.0401583 -0.00576882 0)
(-0.0401097 -0.0130497 0)
(-0.0379083 -0.0214792 0)
(-0.0327348 -0.0301352 0)
(-0.0242122 -0.0366951 0)
(-0.0120902 -0.0364833 0)
(-0.00239737 -0.0209393 0)
(-0.000548288 0.0103825 0)
(-0.00307029 0.0190857 0)
(-0.00691609 0.0217368 0)
(-0.0107003 0.0220367 0)
(-0.0145043 0.0215664 0)
(-0.0182688 0.0207881 0)
(-0.0220063 0.0197737 0)
(-0.0257457 0.0184826 0)
(-0.0295149 0.0168223 0)
(-0.0333319 0.0146488 0)
(-0.037185 0.0117552 0)
(-0.0409971 0.00785954 0)
(-0.0445693 0.00260876 0)
(-0.0475427 -0.00438807 0)
(-0.0492547 -0.013489 0)
(-0.0486347 -0.0247233 0)
(-0.0442776 -0.0371813 0)
(-0.0348668 -0.0478631 0)
(-0.0189484 -0.0496976 0)
(-0.0040664 -0.0293161 0)
(-0.000560857 0.0121759 0)
(-0.00321081 0.0224498 0)
(-0.00726605 0.0255691 0)
(-0.0112372 0.0259348 0)
(-0.0152272 0.0254386 0)
(-0.0191887 0.0246406 0)
(-0.0231612 0.0236422 0)
(-0.0272109 0.0224146 0)
(-0.0314163 0.0208679 0)
(-0.0358623 0.0188454 0)
(-0.0406234 0.0160999 0)
(-0.0457253 0.0122623 0)
(-0.0510821 0.00680895 0)
(-0.056421 -0.000939242 0)
(-0.0610917 -0.0116781 0)
(-0.063826 -0.0260445 0)
(-0.0625119 -0.0435787 0)
(-0.0539128 -0.0611677 0)
(-0.0333271 -0.0686149 0)
(-0.00803234 -0.0431726 0)
(-0.000578852 0.0140509 0)
(-0.00338037 0.026 0)
(-0.0076675 0.0295998 0)
(-0.0118228 0.0300168 0)
(-0.0159756 0.0294882 0)
(-0.0200908 0.0286869 0)
(-0.024237 0.0277543 0)
(-0.0285227 0.0266873 0)
(-0.0330873 0.0254173 0)
(-0.0381045 0.0238009 0)
(-0.0437773 0.0215824 0)
(-0.0503151 0.0183353 0)
(-0.0578712 0.0133847 0)
(-0.066424 0.00575112 0)
(-0.0757919 -0.0058088 0)
(-0.0849916 -0.0226515 0)
(-0.0911145 -0.0462526 0)
(-0.0868647 -0.0753616 0)
(-0.060548 -0.0969243 0)
(-0.0160925 -0.0685601 0)
(-0.000609943 0.0160303 0)
(-0.00360152 0.0297661 0)
(-0.00815034 0.0338375 0)
(-0.0124794 0.0342644 0)
(-0.0167538 0.0336713 0)
(-0.02095 0.0328588 0)
(-0.0251656 0.0320198 0)
(-0.0295508 0.0311928 0)
(-0.0343061 0.0303557 0)
(-0.0397031 0.0294183 0)
(-0.0461048 0.028178 0)
(-0.0539825 0.0262433 0)
(-0.0639125 0.0229187 0)
(-0.076557 0.0170772 0)
(-0.0925844 0.00701073 0)
(-0.112355 -0.0101019 0)
(-0.131421 -0.0399395 0)
(-0.133404 -0.0889587 0)
(-0.0976017 -0.14089 0)
(-0.0276739 -0.115248 0)
(-0.000670246 0.0181585 0)
(-0.00391907 0.0337988 0)
(-0.00877463 0.0383001 0)
(-0.0132602 0.0386567 0)
(-0.0175963 0.0379267 0)
(-0.0217711 0.0370552 0)
(-0.0259079 0.0362978 0)
(-0.0301901 0.0357484 0)
(-0.0348661 0.0354604 0)
(-0.0402909 0.03545 0)
(-0.046982 0.0356611 0)
(-0.0557037 0.035898 0)
(-0.0675779 0.0357217 0)
(-0.0842341 0.0342999 0)
(-0.107976 0.0297475 0)
(-0.139841 0.0157807 0)
(-0.170786 -0.0233273 0)
(-0.172086 -0.108063 0)
(-0.125934 -0.207032 0)
(-0.0403749 -0.190386 0)
(-0.000789808 0.0204989 0)
(-0.00440782 0.0381174 0)
(-0.00964025 0.0429153 0)
(-0.0142638 0.0430617 0)
(-0.0185868 0.0420964 0)
(-0.0226088 0.0410963 0)
(-0.0264776 0.0403642 0)
(-0.0303917 0.0400585 0)
(-0.034609 0.0403305 0)
(-0.0395122 0.0413496 0)
(-0.045699 0.043308 0)
(-0.0541255 0.0464113 0)
(-0.0662992 0.0508355 0)
(-0.0845193 0.0563335 0)
(-0.112055 0.0601871 0)
(-0.148856 0.0492519 0)
(-0.17994 -0.00559655 0)
(-0.171849 -0.136695 0)
(-0.133175 -0.281392 0)
(-0.0506394 -0.28913 0)
(-0.00105137 0.023313 0)
(-0.00527227 0.0431958 0)
(-0.0109554 0.0482295 0)
(-0.0156265 0.0480098 0)
(-0.0198065 0.0465536 0)
(-0.0235329 0.0451521 0)
(-0.0269503 0.0441984 0)
(-0.0302277 0.0439251 0)
(-0.0335824 0.0445839 0)
(-0.037333 0.0465201 0)
(-0.041988 0.0502392 0)
(-0.0483886 0.0564605 0)
(-0.0579005 0.0660973 0)
(-0.0722226 0.0789694 0)
(-0.0938086 0.0899247 0)
(-0.120148 0.0777639 0)
(-0.142378 0.00647512 0)
(-0.131183 -0.156486 0)
(-0.121005 -0.334195 0)
(-0.0463175 -0.391283 0)
(-0.00142471 0.0267627 0)
(-0.006281 0.0477919 0)
(-0.0126857 0.0522418 0)
(-0.0175636 0.0511174 0)
(-0.0216755 0.0491819 0)
(-0.0249816 0.0475978 0)
(-0.0277025 0.0466227 0)
(-0.0300042 0.0464271 0)
(-0.0320139 0.0472931 0)
(-0.033866 0.0496873 0)
(-0.0357784 0.0543658 0)
(-0.0380686 0.0624104 0)
(-0.041429 0.0751401 0)
(-0.046031 0.0917219 0)
(-0.0533861 0.105568 0)
(-0.0599085 0.0908551 0)
(-0.0707618 0.0134911 0)
(-0.0625955 -0.156283 0)
(-0.0866123 -0.358035 0)
(-0.0265827 -0.470006 0)
(-0.00349321 0.0299093 0)
(-0.010645 0.0562533 0)
(-0.0164705 0.0606285 0)
(-0.0205475 0.0590096 0)
(-0.0236586 0.0556802 0)
(-0.0261687 0.0527045 0)
(-0.0281356 0.0504941 0)
(-0.0295253 0.0492735 0)
(-0.0302344 0.0493086 0)
(-0.030096 0.0510329 0)
(-0.028896 0.0552294 0)
(-0.0261901 0.0629603 0)
(-0.0220532 0.0756902 0)
(-0.0145768 0.0918347 0)
(-0.00658746 0.105871 0)
(0.00864578 0.0918443 0)
(0.00845408 0.0185428 0)
(0.0124178 -0.135678 0)
(-0.0430757 -0.351654 0)
(-0.00601607 -0.510183 0)
(-0.00115258 0.0438589 0)
(-0.00862471 0.0586664 0)
(-0.0194421 0.059394 0)
(-0.0239071 0.0549371 0)
(-0.0277601 0.0517142 0)
(-0.0298055 0.0494159 0)
(-0.0307724 0.0478378 0)
(-0.0306929 0.046872 0)
(-0.029486 0.0466975 0)
(-0.0268338 0.0476234 0)
(-0.0222708 0.0503711 0)
(-0.0145819 0.0555439 0)
(-0.00367919 0.0644905 0)
(0.0142339 0.0758812 0)
(0.034378 0.0852919 0)
(0.0647031 0.0744985 0)
(0.0704972 0.0144532 0)
(0.073697 -0.10425 0)
(-0.00225501 -0.322486 0)
(0.0198865 -0.520146 0)
(-0.0124315 0.0327845 0)
(-0.0242661 0.0798831 0)
(-0.0237909 0.0788402 0)
(-0.0300328 0.0736827 0)
(-0.0319995 0.0663946 0)
(-0.0322193 0.0602296 0)
(-0.0305687 0.0551442 0)
(-0.0273643 0.0510941 0)
(-0.0226996 0.0480676 0)
(-0.0162854 0.0459215 0)
(-0.00818582 0.0450657 0)
(0.00317303 0.0456503 0)
(0.017354 0.0488312 0)
(0.0385251 0.0534984 0)
(0.0597274 0.0586614 0)
(0.0947897 0.0518519 0)
(0.100922 0.015563 0)
(0.124695 -0.0676135 0)
(0.0543151 -0.287147 0)
(0.0604489 -0.503318 0)
(-0.0772827 0.0966662 0)
(-0.0630173 0.0593619 0)
(-0.0654479 0.0599142 0)
(-0.0440468 0.0532407 0)
(-0.0269801 0.0463398 0)
(-0.00720691 0.041181 0)
(0.0114344 0.0374437 0)
(0.0302341 0.034246 0)
(0.0475203 0.0318577 0)
(0.0659554 0.0296014 0)
(0.0818702 0.0282603 0)
(0.101851 0.0272102 0)
(0.116464 0.0271021 0)
(0.1445 0.0276257 0)
(0.155825 0.0246008 0)
(0.203093 0.0182955 0)
(0.197131 -0.0157462 0)
(0.237004 -0.0792624 0)
(0.164393 -0.261667 0)
(0.126935 -0.440998 0)
(0.119719 0.140757 0)
(0.152421 0.0861755 0)
(0.229287 0.0635843 0)
(0.28467 0.0481357 0)
(0.32592 0.0374581 0)
(0.364299 0.0296584 0)
(0.392784 0.0242256 0)
(0.424181 0.0202206 0)
(0.443967 0.0172924 0)
(0.472533 0.0151238 0)
(0.485332 0.0133611 0)
(0.514897 0.012314 0)
(0.520199 0.0112009 0)
(0.554338 0.0107361 0)
(0.549343 0.00920607 0)
(0.585966 0.00531485 0)
(0.557067 -0.00423772 0)
(0.565772 -0.0275472 0)
(0.428832 -0.0726926 0)
(0.276164 -0.15212 0)
)
;

boundaryField
{
    movingWall
    {
        type            fixedValue;
        value           uniform (1 0 0);
    }
    fixedWalls
    {
        type            noSlip;
    }
    frontAndBack
    {
        type            empty;
    }
}


// ************************************************************************* //
