/*--------------------------------*- C++ -*----------------------------------*\
  =========                 |
  \\      /  F ield         | OpenFOAM: The Open Source CFD Toolbox
   \\    /   O peration     | Website:  https://openfoam.org
    \\  /    A nd           | Version:  10
     \\/     M anipulation  |
\*---------------------------------------------------------------------------*/
FoamFile
{
    format      ascii;
    class       volScalarField;
    location    "9.3";
    object      p;
}
// * * * * * * * * * * * * * * * * * * * * * * * * * * * * * * * * * * * * * //

dimensions      [0 2 -2 0 0 0 0];

internalField   nonuniform List<scalar> 
496
(
23.1218
23.3045
18.9189
11.4426
24.2808
24.2942
18.5156
11.5975
29.3545
26.4636
16.9624
6.35976
36.1851
33.6628
30.1047
14.6433
3.16984
-6.19436
3.18501
-6.82365
-8.67017
-14.6146
-37.2284
-61.7636
-14.0872
-19.3742
-21.7478
-21.8949
-15.2195
-21.9159
-25.6986
-25.4214
-10.179
-14.1526
-19.7481
-21.6535
-34.2526
-24.7814
-25.5274
-24.9908
-20.5667
-19.1724
-18.3662
-17.2155
-14.9106
-12.4508
-12.274
-14.1873
-16.19
-16.2944
-15.4052
-14.7489
-14.9042
-15.3611
-15.1231
-14.2564
-13.1325
-12.456
-11.6437
-10.7403
-9.81084
-8.85309
-7.89733
-6.53006
-5.51488
-4.49083
-3.96028
-3.39435
-3.0554
-2.84011
-2.53129
-2.65759
-2.64522
-2.74758
-2.58956
-2.1813
-1.69903
-0.932871
-0.409535
-0.0210542
-22.9642
-21.2397
-19.6828
-17.0323
-13.7237
-11.7945
-12.0766
-13.7866
-15.2502
-15.5135
-15.2558
-15.3392
-15.7884
-15.9474
-15.3022
-14.2991
-13.2492
-12.5587
-11.6763
-10.8244
-9.83388
-8.8295
-7.79413
-6.46512
-5.3508
-4.14315
-3.41733
-3.02903
-2.60047
-2.78669
-2.6914
-2.76898
-2.63161
-2.7715
-2.7447
-2.48751
-1.85453
-0.93304
-0.324231
0.208561
-22.1468
-22.5671
-20.3852
-16.1988
-12.9687
-12.225
-13.3698
-14.5554
-14.8756
-15.0031
-15.455
-16.1061
-16.6186
-16.1229
-15.1527
-14.1869
-13.6994
-13.1835
-12.4997
-11.8137
-10.6124
-9.33286
-7.56124
-6.23563
-4.95352
-4.13788
-3.5205
-2.73693
-3.14785
-3.26532
-3.83004
-4.0465
-4.00962
-3.60591
-2.70955
-2.11206
-0.973981
-0.1112
0.000888871
0.279001
-22.1413
-22.4083
-19.7075
-13.0725
-8.83943
-10.3189
-12.1726
-13.1524
-13.7625
-15.5984
-17.2989
-18.0613
-17.7424
-16.3614
-14.8538
-13.591
-13.554
-12.7729
-12.6895
-12.2448
-11.4363
-10.2737
-8.0414
-6.36262
-3.66798
-2.18994
-0.944321
-1.34045
-2.20926
-2.62789
-4.27096
-4.36979
-5.01593
-4.68315
-3.79237
-2.93523
-0.138055
1.65986
3.10815
2.2848
41.1099
43.8905
58.292
68.9241
42.4357
43.6834
58.0405
69.4777
-37.0214
-48.158
-34.8374
-30.5143
-30.1383
-38.797
-38.9179
-39.4269
-29.2027
-25.9519
-21.3868
-11.8929
-15.8063
-14.5016
-11.1461
-12.0957
-13.8091
-15.1145
-15.6629
-16.4658
-17.0953
-16.8772
-16.0424
-14.9192
-13.5945
-12.5409
-12.0265
-11.2104
-10.2707
-9.01445
-7.92446
-6.77942
-5.35591
-4.45671
-3.72289
-3.63685
-3.36599
-3.19826
-3.51114
-3.61208
-4.03936
-3.6559
-3.0794
-2.05749
-0.889885
-0.33038
0.533479
0.192667
-26.0805
-24.2704
-24.5358
-18.5057
-15.2905
-14.2761
-13.5649
-13.0132
-12.4727
-13.198
-14.9819
-16.4662
-17.4505
-17.5994
-17.0347
-16.0151
-14.2947
-12.5533
-10.85
-9.20205
-7.5394
-6.84975
-6.6625
-6.61069
-6.78092
-6.90518
-6.96009
-6.38259
-5.3548
-3.9647
-2.74113
-1.59483
-0.752424
-1.0431
-0.463474
-0.594584
-1.06385
-0.905946
-1.42567
-1.23432
37.4529
34.3273
29.9363
15.6214
28.4341
26.7503
18.7043
9.26408
23.7016
25.1417
21.8371
15.2039
23.4675
24.3654
21.2874
14.4059
-34.8948
-56.0633
-4.7081
-12.0997
6.36268
-3.2861
5.97197
-3.64901
-28.9004
-23.1573
-21.608
-31.4766
-7.78247
-10.8971
-17.585
-24.2031
-10.9706
-17.2874
-22.4334
-25.8119
-11.9435
-17.5112
-20.764
-22.5299
-30.2847
-23.6583
-20.399
-18.118
-16.2129
-13.3568
-11.9759
-12.7684
-14.406
-15.2118
-14.9514
-15.4305
-16.071
-17.2564
-16.876
-16.2139
-14.2564
-12.1027
-9.58632
-7.50724
-6.43354
-5.23375
-5.83439
-6.24168
-7.46484
-7.51626
-7.60564
-7.18119
-5.90195
-4.62353
-1.52924
0.74801
2.88687
2.89565
1.54622
0.753973
-0.911505
-1.17366
-1.52709
-1.30281
-26.4672
-24.4264
-21.3678
-18.1615
-15.6
-14.1085
-14.1963
-14.4948
-14.7997
-15.1082
-15.1002
-15.4012
-15.7056
-16.2747
-15.9817
-15.0798
-13.5091
-11.8264
-10.1011
-8.57226
-7.79244
-7.21938
-7.28403
-7.14202
-7.29459
-7.19365
-6.6014
-5.80337
-4.4727
-3.61963
-2.05983
-1.2673
-0.27184
0.579364
0.0480711
-0.229114
-1.00204
-1.18484
-0.931598
-0.471232
-26.2942
-24.1957
-21.0832
-18.135
-15.825
-15.0461
-15.2657
-15.4758
-14.9839
-14.5937
-14.8504
-15.1968
-15.4664
-15.3387
-15.0642
-14.1463
-13.0726
-11.7187
-10.3157
-8.77514
-7.77901
-7.31594
-6.79545
-6.54056
-6.24153
-6.08212
-5.6181
-5.19924
-4.60844
-3.75245
-2.74136
-1.23173
-0.364035
0.402103
0.543103
0.369344
0.394098
0.163827
0.259635
0.140678
-22.7404
-21.6242
-20.0685
-18.0469
-15.8062
-14.6453
-14.9464
-15.8251
-15.5869
-14.8956
-14.6367
-14.9988
-15.4018
-15.3499
-14.9033
-13.8507
-12.7528
-11.4763
-10.4039
-9.19249
-8.14882
-7.54387
-7.11453
-6.87416
-6.25397
-6.03945
-5.59025
-5.10581
-4.41798
-3.46399
-2.68852
-1.44355
-0.68438
0.0871134
0.449707
0.426893
0.52044
0.419842
0.338941
0.150771
)
;

boundaryField
{
    inlet
    {
        type            zeroGradient;
    }
    outlet
    {
        type            fixedValue;
        value           uniform 0;
    }
    obstacle
    {
        type            zeroGradient;
    }
    upperWall
    {
        type            zeroGradient;
    }
    lowerWall
    {
        type            zeroGradient;
    }
    frontAndBack
    {
        type            empty;
    }
}


// ************************************************************************* //
