/*--------------------------------*- C++ -*----------------------------------*\
  =========                 |
  \\      /  F ield         | OpenFOAM: The Open Source CFD Toolbox
   \\    /   O peration     | Website:  https://openfoam.org
    \\  /    A nd           | Version:  10
     \\/     M anipulation  |
\*---------------------------------------------------------------------------*/
FoamFile
{
    format      ascii;
    class       volScalarField;
    location    "8.45";
    object      p;
}
// * * * * * * * * * * * * * * * * * * * * * * * * * * * * * * * * * * * * * //

dimensions      [0 2 -2 0 0 0 0];

internalField   nonuniform List<scalar> 
496
(
24.0922
23.9418
20.2992
13.6133
24.8736
25.2629
20.4651
13.6239
30.6327
27.823
18.2913
6.76361
39.2551
35.9643
30.4077
12.9551
4.63681
-4.59073
4.09938
-5.15718
-9.93613
-14.7314
-47.526
-73.3869
-10.7123
-12.9329
-12.6396
-11.1426
-11.8918
-16.3896
-16.8227
-13.9682
-5.71775
-3.23897
-5.32553
-6.25807
-44.334
-20.5319
5.81919
1.84152
-10.0886
-10.3446
-12.1135
-14.654
-16.8584
-18.2196
-18.3055
-17.5819
-16.5522
-15.519
-14.4512
-13.2914
-12.136
-11.1223
-10.106
-9.23489
-8.59628
-8.12823
-7.60985
-6.8785
-6.25904
-5.57629
-4.84501
-3.89076
-3.09961
-2.38378
-1.90497
-1.71668
-1.74055
-2.13287
-2.29602
-2.48235
-2.47377
-2.40852
-2.35508
-2.10759
-1.90102
-1.39937
-0.737031
-0.191845
-11.3502
-11.4515
-13.8198
-16.46
-18.3022
-18.9959
-18.6615
-17.9111
-16.9213
-15.8318
-14.5455
-13.3119
-12.1404
-10.9959
-9.79093
-8.9056
-8.34899
-8.01658
-7.54439
-6.8723
-6.27526
-5.53092
-4.73773
-3.75592
-2.84274
-2.15249
-1.65302
-1.48942
-1.56621
-2.01014
-2.38534
-2.69033
-2.59413
-2.55221
-2.47092
-2.22395
-1.92914
-1.34255
-0.598875
0.0362327
-7.83396
-10.6918
-14.4163
-17.2519
-19.3829
-19.9949
-19.612
-18.6186
-17.6257
-16.3554
-14.8078
-13.4541
-12.1745
-10.7871
-9.57872
-8.91196
-8.72728
-8.56067
-8.05183
-7.55236
-6.75567
-5.6955
-4.42148
-3.19966
-2.13756
-1.53829
-1.27217
-1.29919
-1.93179
-2.64615
-3.20684
-3.70415
-3.64905
-3.33561
-2.5462
-2.07247
-1.38265
-0.745326
-0.740422
-0.0199485
-4.10311
-8.54893
-13.0946
-17.1247
-20.8971
-22.298
-20.4328
-19.3291
-18.7593
-16.9408
-14.9698
-13.1257
-11.3784
-9.61042
-8.43539
-8.19345
-8.205
-8.37092
-8.00013
-8.07176
-7.58272
-6.67242
-5.01216
-3.11102
-1.30537
0.294485
0.600214
0.159277
-1.14099
-2.29203
-3.59268
-4.14544
-4.60627
-4.2635
-3.24786
-2.90742
-1.62615
-0.351454
1.57942
2.06664
45.3319
46.297
60.3809
70.279
47.0322
49.0584
63.0438
76.0588
-37.8101
-42.6989
-29.4335
-0.0770441
-21.4298
-48.6685
-31.3678
-10.4335
-11.6355
-8.84356
-12.4679
-20.727
-22.5947
-21.387
-20.1909
-22.1673
-20.6025
-16.8888
-14.9379
-13.2272
-11.757
-10.4049
-9.27695
-8.56451
-8.13424
-7.575
-7.27315
-7.29883
-6.82318
-5.99355
-4.95167
-3.99321
-2.94733
-1.70282
-1.77742
-1.39942
-1.6591
-2.17437
-2.61947
-3.58676
-4.05851
-3.29708
-2.98806
-2.18357
-1.01967
-0.470321
0.52222
0.654929
-14.6498
-9.83192
-12.9129
-16.2949
-19.6909
-23.4292
-20.9638
-19.0874
-18.4902
-16.3848
-15.521
-14.3263
-12.8753
-11.3083
-9.95762
-9.16066
-8.22655
-6.85102
-6.03776
-5.6921
-5.15403
-4.6551
-4.78078
-4.97625
-5.0311
-4.93641
-4.35329
-3.73304
-2.86868
-1.7875
-0.974956
-0.883994
-0.674566
-0.603444
-1.00577
-1.07192
-0.841179
-0.883681
-1.08981
-0.667031
43.3615
41.7788
38.0318
26.358
36.6987
35.3208
28.492
19.4985
32.4245
32.9905
29.6022
23.4481
31.8122
31.8389
28.889
22.8953
-19.5193
-39.4358
7.14639
-0.268655
15.3366
6.21403
15.2614
6.21652
-13.6694
-12.9091
-19.8029
-10.7601
2.69233
-3.15865
-11.986
-12.624
-1.29167
-7.36797
-12.8392
-15.3872
-1.49922
-7.2002
-10.9119
-12.5714
-7.60969
-9.06785
-12.469
-16.4393
-17.8558
-18.7938
-19.8777
-19.8235
-17.9361
-16.1933
-14.5907
-13.6924
-12.9841
-11.9215
-10.7257
-9.39763
-8.15509
-6.61122
-5.23932
-4.01513
-4.08517
-4.23153
-4.86995
-5.54672
-6.24225
-6.2481
-5.51402
-4.56882
-2.55787
-0.785594
1.8261
2.39273
2.05877
1.36191
0.47275
-0.0783693
-1.11104
-1.30523
-2.0128
-1.61612
-8.65219
-8.68533
-12.3298
-15.9627
-18.0984
-18.8002
-18.5847
-18.2193
-17.3977
-16.1859
-14.892
-13.7511
-12.9343
-11.8471
-10.6307
-9.34223
-8.20795
-7.04221
-6.1786
-5.57109
-5.16253
-5.04808
-5.26801
-5.4549
-5.49404
-5.29947
-4.24555
-3.27127
-1.97428
-1.24311
-0.644757
0.231339
0.246908
0.39441
0.0652645
-0.286091
-0.707115
-0.980842
-0.875449
-0.501628
-14.1588
-12.0569
-12.41
-15.0007
-17.3374
-18.1401
-17.9908
-17.3734
-16.5791
-15.611
-14.6054
-13.5075
-12.5547
-11.5434
-10.4552
-9.32957
-8.36965
-7.51959
-6.64472
-5.80467
-5.1281
-4.84091
-4.61205
-4.80019
-4.79186
-4.62622
-4.15586
-3.33287
-2.57728
-1.76334
-0.85326
-0.190936
0.276417
0.384292
0.256821
0.0849303
0.0448045
-0.060152
0.000196315
-0.0789909
-12.2257
-10.88
-10.9059
-12.886
-15.6013
-17.5024
-17.9227
-17.3402
-16.4029
-15.4238
-14.4251
-13.4236
-12.4698
-11.5573
-10.4864
-9.30332
-8.39398
-7.69043
-6.91258
-6.09758
-5.36323
-4.96481
-4.69739
-4.73475
-4.75147
-4.56246
-4.00515
-3.11049
-2.42305
-1.59216
-0.993362
-0.388429
0.0597733
0.181038
0.234983
0.220944
0.280485
0.231585
0.0906221
-0.0285111
)
;

boundaryField
{
    inlet
    {
        type            zeroGradient;
    }
    outlet
    {
        type            fixedValue;
        value           uniform 0;
    }
    obstacle
    {
        type            zeroGradient;
    }
    upperWall
    {
        type            zeroGradient;
    }
    lowerWall
    {
        type            zeroGradient;
    }
    frontAndBack
    {
        type            empty;
    }
}


// ************************************************************************* //
