/*--------------------------------*- C++ -*----------------------------------*\
  =========                 |
  \\      /  F ield         | OpenFOAM: The Open Source CFD Toolbox
   \\    /   O peration     | Website:  https://openfoam.org
    \\  /    A nd           | Version:  10
     \\/     M anipulation  |
\*---------------------------------------------------------------------------*/
FoamFile
{
    format      ascii;
    class       volVectorField;
    location    "8.45";
    object      U;
}
// * * * * * * * * * * * * * * * * * * * * * * * * * * * * * * * * * * * * * //

dimensions      [0 1 -1 0 0 0 0];

internalField   nonuniform List<vector> 
496
(
(9.97899 0.0570264 0)
(9.97527 -0.147851 0)
(10.2372 -0.171624 0)
(10.8669 -0.182619 0)
(10.0005 0.434989 0)
(9.91898 -1.25901 0)
(10.272 -0.514898 0)
(11.0525 -1.08906 0)
(10.7496 1.39659 0)
(9.25225 -3.14494 0)
(11.2369 -0.207323 0)
(11.139 -4.2052 0)
(12.1632 1.38094 0)
(8.22763 -2.67161 0)
(12.675 0.451715 0)
(11.2028 -6.87935 0)
(11.5348 -0.238597 1.24552e-18)
(12.2759 -0.126891 1.38159e-18)
(11.7709 -0.561702 -2.91277e-18)
(12.7596 0.336544 4.2599e-18)
(13.3738 -2.12805 1.66645e-18)
(13.6997 0.130771 -5.64244e-18)
(12.5021 -5.83063 -5.42298e-17)
(17.6977 -4.38302 8.32069e-17)
(12.681 -0.115826 0)
(12.8029 -0.0562313 0)
(12.7065 0.185039 0)
(12.5899 0.243675 0)
(13.1864 0.366283 0)
(13.5107 -0.136582 0)
(13.5361 -0.529062 0)
(13.2071 -0.843978 0)
(13.025 1.41658 0)
(12.5121 2.8274 0)
(12.84 1.80315 0)
(12.5095 0.727676 0)
(8.87151 -2.5334 0)
(14.2302 -2.33104 0)
(8.10266 0.654258 0)
(10.2052 -0.551247 0)
(12.5228 0.289368 0)
(12.6618 0.212188 0)
(12.9009 0.286759 0)
(13.1825 0.326496 0)
(13.3858 0.421209 0)
(13.4478 0.464735 0)
(13.4259 0.481069 0)
(13.2324 0.487773 0)
(13.1315 0.487121 0)
(12.8766 0.496222 0)
(12.8212 0.479934 0)
(12.5446 0.465064 0)
(12.534 0.435235 0)
(12.2801 0.438367 0)
(12.3056 0.391336 0)
(12.0651 0.404826 0)
(12.1066 0.36163 0)
(11.904 0.408171 0)
(11.8752 0.374581 0)
(11.637 0.413873 0)
(11.4888 0.396568 0)
(11.3111 0.420914 0)
(11.113 0.409897 0)
(11.0356 0.362141 0)
(10.9087 0.349442 0)
(11.0033 0.243486 0)
(11.0673 0.262898 0)
(11.2117 0.178117 0)
(11.4033 0.229596 0)
(11.3942 0.227377 0)
(11.5579 0.296879 0)
(11.2224 0.38564 0)
(11.2023 0.425356 0)
(10.6471 0.550126 0)
(10.4694 0.536276 0)
(10.0746 0.592904 0)
(9.82749 0.45751 0)
(9.86575 0.370074 0)
(9.65429 0.23535 0)
(10.104 0.101834 0)
(13.0941 -0.989929 0)
(13.1952 -1.06541 0)
(13.5864 -0.908886 0)
(13.8401 -0.774758 0)
(14.0979 -0.560521 0)
(14.0823 -0.445506 0)
(14.0989 -0.309262 0)
(13.9201 -0.273549 0)
(13.8828 -0.189356 0)
(13.6669 -0.171075 0)
(13.6167 -0.13179 0)
(13.4123 -0.154354 0)
(13.3964 -0.143588 0)
(13.2478 -0.135435 0)
(13.2209 -0.177583 0)
(13.1382 -0.143242 0)
(13.1291 -0.178125 0)
(13.0997 -0.0668608 0)
(13.0017 -0.0869499 0)
(12.9196 0.00931986 0)
(12.7538 -0.0292638 0)
(12.6502 -0.0346705 0)
(12.4743 -0.123852 0)
(12.3382 -0.243043 0)
(12.2908 -0.268606 0)
(12.2383 -0.432401 0)
(12.4226 -0.395272 0)
(12.4349 -0.506116 0)
(12.7329 -0.361126 0)
(12.7634 -0.305233 0)
(12.9733 -0.113823 0)
(12.8673 0.054378 0)
(12.7878 0.0936506 0)
(12.6372 0.208691 0)
(12.3333 -0.0211539 0)
(12.2223 0.0125742 0)
(11.7238 -0.246597 0)
(11.7538 -0.260075 0)
(11.3687 -0.40672 0)
(11.648 -0.501854 0)
(12.8436 0.322492 0)
(12.7485 0.0124393 0)
(13.4841 0.0882877 0)
(13.3696 0.0237983 0)
(13.7856 0.232669 0)
(13.6735 0.395179 0)
(13.8104 0.567935 0)
(13.6196 0.617219 0)
(13.6137 0.663775 0)
(13.5243 0.722024 0)
(13.3799 0.63349 0)
(13.3838 0.64745 0)
(13.1868 0.474587 0)
(13.2707 0.500813 0)
(13.0101 0.258531 0)
(13.2123 0.376325 0)
(13.0627 0.216144 0)
(13.2905 0.440596 0)
(13.1517 0.397078 0)
(13.2053 0.611034 0)
(13.0679 0.711266 0)
(12.8621 0.767242 0)
(12.7818 0.844713 0)
(12.4506 0.521416 0)
(12.5644 0.490055 0)
(12.1742 -0.0713279 0)
(12.4383 -0.0343521 0)
(12.2214 -0.369725 0)
(12.5573 -0.212234 0)
(12.6087 -0.115475 0)
(12.856 0.0663399 0)
(13.0473 0.523275 0)
(12.9644 0.602884 0)
(13.0185 1.20154 0)
(12.4754 1.08662 0)
(12.3599 1.4016 0)
(11.7648 1.01429 0)
(11.6695 0.716571 0)
(11.4167 0.151248 0)
(11.3538 -0.444482 0)
(9.65533 -0.731891 0)
(9.69837 -0.93964 0)
(10.1242 -1.2223 0)
(9.35544 -1.25399 0)
(9.84432 -0.721389 0)
(9.86389 -0.553592 0)
(10.3995 -0.408064 0)
(9.56906 -0.169265 0)
(10.1654 0.169597 0)
(10.2392 0.210329 0)
(10.1241 0.248318 0)
(10.305 0.238584 0)
(9.89526 0.170324 0)
(10.2129 0.120209 0)
(9.58121 0.0377223 0)
(10.2368 0.030337 0)
(9.72419 -0.0639793 0)
(10.59 -0.0560141 0)
(10.182 -0.120186 0)
(10.878 -0.0115592 0)
(10.9442 0.042333 0)
(11.138 0.121844 0)
(11.2702 0.166593 0)
(10.7283 0.125245 0)
(10.8528 0.145885 0)
(9.86798 0.0195673 0)
(10.0895 -0.0383408 0)
(9.33868 -0.274053 0)
(9.60195 -0.423453 0)
(9.7543 -0.480186 0)
(9.95282 -0.469372 0)
(10.7618 -0.221985 0)
(10.84 -0.0404573 0)
(11.9537 0.300591 0)
(11.7775 0.33906 0)
(12.7182 0.486618 0)
(12.5196 0.366849 0)
(12.4936 0.194855 0)
(12.1528 0.193445 0)
(10.9465 -0.0324751 0)
(12.4093 0.572147 -1.0322e-17)
(7.61838 -1.09951 -1.73148e-17)
(12.1209 -0.306633 3.03612e-17)
(4.21835 -5.29228 -7.9719e-17)
(11.9874 -0.626056 1.08248e-17)
(8.18771 0.710211 1.82249e-17)
(11.2015 -0.486835 -3.19084e-17)
(4.80522 4.56815 8.63021e-17)
(12.5362 4.9387 0)
(-11.2733 5.53833 0)
(4.24428 -4.44648 0)
(-0.026634 2.96551 0)
(-8.80332 -0.81706 2.43503e-17)
(4.20344 2.44926 0)
(5.01666 -4.57964 0)
(-1.68641 0.329582 0)
(-0.752269 -0.788599 0)
(2.97396 0.11596 0)
(-1.44393 -0.393163 0)
(1.11156 -1.66638 0)
(1.53297 -0.114651 0)
(-0.156342 1.9464 0)
(-0.537365 -0.269415 0)
(-0.546966 -0.313534 0)
(1.28483 0.786938 0)
(0.838421 0.730637 0)
(1.04832 0.598239 0)
(0.899903 0.588778 0)
(0.886543 0.397268 0)
(1.38371 0.293135 0)
(1.70151 0.108801 0)
(1.75491 0.0696675 0)
(2.15745 0.120528 0)
(2.65901 0.011133 0)
(2.4424 -0.0267102 0)
(2.94317 0.277739 0)
(3.09096 0.539349 0)
(3.13503 0.640298 0)
(3.11043 0.86557 0)
(2.98463 0.843914 0)
(3.2793 0.815765 0)
(3.05329 0.44391 0)
(3.34789 0.055327 0)
(3.71166 -0.31546 0)
(3.65174 -0.676241 0)
(4.72698 -0.698044 0)
(4.4806 -0.833356 0)
(5.26753 -0.504067 0)
(5.80943 -0.0836049 0)
(5.56623 0.183625 0)
(5.98062 0.466918 0)
(5.79963 0.902597 0)
(5.29566 0.88005 0)
(5.40319 1.12819 0)
(4.69828 1.011 0)
(4.80015 0.233994 0)
(4.64419 -0.772025 0)
(1.09608 -1.06811 0)
(1.94312 0.445975 0)
(1.07163 -1.56223 0)
(-2.10797 0.873466 0)
(-0.736698 0.266778 0)
(1.30088 -1.04694 0)
(-0.984188 -0.749975 0)
(-0.409577 -0.305898 0)
(-0.103974 -0.152833 0)
(0.00873081 -0.0308499 0)
(0.69425 0.0525678 0)
(1.1396 -0.207958 0)
(1.45348 -0.437566 0)
(1.32534 -0.399643 0)
(1.35995 -0.347178 0)
(1.92733 -0.619708 0)
(1.94322 -0.622172 0)
(1.58653 -0.397158 0)
(2.11429 -0.314299 0)
(2.34326 -0.183321 0)
(2.28673 0.0329371 0)
(2.57587 0.303001 0)
(3.1429 0.188871 0)
(3.1914 0.106898 0)
(3.7988 -0.179179 0)
(3.57955 -0.489191 0)
(4.05853 -0.789853 0)
(3.81271 -1.15402 0)
(3.74113 -1.22836 0)
(3.45721 -1.03331 0)
(3.62636 -0.813583 0)
(3.66257 -0.428739 0)
(3.62042 0.196314 0)
(3.70777 0.532604 0)
(4.14828 0.807004 0)
(4.2647 0.866344 0)
(4.27161 0.949736 0)
(5.05939 0.720284 0)
(5.11613 -0.00172725 0)
(11.9038 -1.52367 0)
(8.40245 2.23836 0)
(12.2608 -0.503604 0)
(10.4502 5.43364 0)
(10.8331 -1.27733 0)
(9.15568 2.58063 0)
(10.8961 0.277378 0)
(10.7973 3.38769 0)
(10.1101 -0.484809 0)
(9.75339 1.09373 0)
(10.1889 0.397691 0)
(10.7465 0.94563 0)
(9.98792 -0.0743813 0)
(9.90227 0.160809 0)
(10.1836 0.123495 0)
(10.7045 0.214591 0)
(12.3447 5.73726 2.22679e-17)
(15.4702 3.31446 -4.47244e-17)
(12.3665 2.21638 0)
(13.2451 0.377569 0)
(11.4537 0.648473 0)
(12.3885 0.0230427 0)
(11.3524 0.240546 0)
(12.0365 0.201187 0)
(9.93536 4.54916 0)
(8.26588 0.749558 0)
(10.7326 -0.642188 0)
(9.63836 0.584734 0)
(12.64 -0.0993732 0)
(13.0345 0.0135448 0)
(13.6369 -0.549862 0)
(13.8003 -0.75302 0)
(13.0233 0.0685379 0)
(13.4386 0.309704 0)
(13.9113 0.26252 0)
(14.0702 0.123112 0)
(12.7083 0.218176 0)
(13.0497 0.209791 0)
(13.3977 0.19155 0)
(13.3895 -0.00104864 0)
(7.43492 0.458243 0)
(8.80384 0.688553 0)
(7.56735 0.917327 0)
(9.03808 0.929013 0)
(8.17321 0.8985 0)
(8.08079 0.600691 0)
(7.88822 0.242126 0)
(8.86931 0.22069 0)
(8.24957 0.113988 0)
(8.75403 0.0533843 0)
(8.63825 0.0418889 0)
(8.84694 -0.0554886 0)
(9.38904 -0.125321 0)
(9.31238 -0.139231 0)
(9.97866 -0.179932 0)
(9.5351 -0.170166 0)
(10.1776 -0.211227 0)
(9.53676 -0.135684 0)
(9.91097 -0.089001 0)
(9.16587 0.0118521 0)
(9.51977 0.0624815 0)
(9.26928 0.188029 0)
(9.34442 0.295423 0)
(9.81185 0.287366 0)
(9.77672 0.251959 0)
(10.8046 0.104091 0)
(10.3515 0.0323666 0)
(11.4395 -0.116144 0)
(10.3552 -0.142928 0)
(10.7995 -0.261964 0)
(9.25912 -0.266877 0)
(8.78233 -0.31293 0)
(8.19334 -0.311404 0)
(7.3057 -0.0266123 0)
(7.75489 0.157001 0)
(7.24936 0.367467 0)
(8.26403 0.448168 0)
(8.41624 0.473135 0)
(9.11103 0.36755 0)
(10.0353 0.117645 0)
(12.9822 -0.376566 0)
(13.1127 -0.367514 0)
(13.2796 -0.249102 0)
(13.5868 -0.41645 0)
(13.7634 -0.398721 0)
(13.664 -0.43442 0)
(13.7272 -0.440696 0)
(13.6434 -0.558343 0)
(13.7562 -0.636058 0)
(13.5665 -0.628671 0)
(13.7094 -0.70026 0)
(13.4332 -0.616976 0)
(13.683 -0.765317 0)
(13.3438 -0.675172 0)
(13.5392 -0.818839 0)
(13.1452 -0.653757 0)
(13.2858 -0.73469 0)
(12.9616 -0.495961 0)
(13.0151 -0.454562 0)
(12.8912 -0.210499 0)
(12.7928 -0.0991193 0)
(12.9806 -0.117079 0)
(12.789 -0.0438557 0)
(13.2011 -0.353141 0)
(12.9478 -0.337786 0)
(13.2767 -0.805325 0)
(12.819 -0.73972 0)
(12.8899 -1.03802 0)
(12.5385 -0.77454 0)
(12.5133 -0.582164 0)
(12.445 -0.196031 0)
(12.094 0.293511 0)
(12.2583 0.259333 0)
(11.9143 0.603211 0)
(12.1653 0.23785 0)
(12.0471 0.477747 0)
(12.3439 0.0388147 0)
(12.5125 -0.0576053 0)
(12.8283 -0.353758 0)
(13.03 -0.772836 0)
(13.9049 0.393421 0)
(13.6748 0.657825 0)
(13.7144 0.727317 0)
(13.9755 0.634074 0)
(14.1348 0.509028 0)
(14.1938 0.426285 0)
(14.1158 0.376665 0)
(14.075 0.326455 0)
(13.9603 0.266134 0)
(13.8798 0.199075 0)
(13.749 0.16341 0)
(13.6141 0.11536 0)
(13.4921 0.0957775 0)
(13.3207 0.0574639 0)
(13.206 0.0641501 0)
(12.988 0.101715 0)
(12.9368 0.0872527 0)
(12.7469 0.190837 0)
(12.7755 0.184357 0)
(12.6259 0.289573 0)
(12.7537 0.261854 0)
(12.6872 0.261173 0)
(12.8636 0.212292 0)
(12.7878 0.0510181 0)
(12.8516 0.0458742 0)
(12.7067 -0.14884 0)
(12.5708 -0.0061536 0)
(12.3951 -0.0720278 0)
(12.124 0.100832 0)
(12.0731 0.148207 0)
(11.8868 0.181527 0)
(12.0303 0.32995 0)
(12.0595 0.295162 0)
(12.2651 0.383906 0)
(12.4847 0.268351 0)
(12.5517 0.262191 0)
(12.8525 0.0315828 0)
(12.6967 -0.0270309 0)
(12.9087 -0.306058 0)
(12.5812 -0.277922 0)
(13.3139 -0.0909576 0)
(13.0385 -0.195418 0)
(13.0826 -0.22619 0)
(13.1953 -0.34486 0)
(13.4479 -0.459427 0)
(13.5189 -0.511021 0)
(13.5167 -0.529077 0)
(13.3842 -0.500982 0)
(13.2526 -0.525598 0)
(13.0885 -0.495623 0)
(12.9251 -0.525728 0)
(12.7404 -0.490843 0)
(12.555 -0.507432 0)
(12.3704 -0.47343 0)
(12.166 -0.470228 0)
(11.9399 -0.435576 0)
(11.7961 -0.437229 0)
(11.6578 -0.39463 0)
(11.6228 -0.363865 0)
(11.4836 -0.304446 0)
(11.556 -0.27622 0)
(11.4334 -0.256704 0)
(11.5878 -0.255257 0)
(11.3996 -0.290633 0)
(11.5043 -0.275383 0)
(11.1653 -0.333645 0)
(11.0722 -0.301164 0)
(10.6912 -0.374592 0)
(10.5462 -0.309635 0)
(10.4236 -0.293406 0)
(10.338 -0.204342 0)
(10.5045 -0.113666 0)
(10.5076 -0.0974272 0)
(10.8178 -0.0195927 0)
(10.8972 -0.0897175 0)
(11.0307 -0.0682479 0)
(11.094 -0.175442 0)
(10.8709 -0.223512 0)
(10.9362 -0.267406 0)
(10.328 -0.339749 0)
)
;

boundaryField
{
    inlet
    {
        type            fixedValue;
        value           uniform (10 0 0);
    }
    outlet
    {
        type            zeroGradient;
    }
    obstacle
    {
        type            noSlip;
    }
    upperWall
    {
        type            noSlip;
    }
    lowerWall
    {
        type            noSlip;
    }
    frontAndBack
    {
        type            empty;
    }
}


// ************************************************************************* //
