/*--------------------------------*- C++ -*----------------------------------*\
  =========                 |
  \\      /  F ield         | OpenFOAM: The Open Source CFD Toolbox
   \\    /   O peration     | Website:  https://openfoam.org
    \\  /    A nd           | Version:  10
     \\/     M anipulation  |
\*---------------------------------------------------------------------------*/
FoamFile
{
    format      ascii;
    class       volVectorField;
    location    "7.025";
    object      U;
}
// * * * * * * * * * * * * * * * * * * * * * * * * * * * * * * * * * * * * * //

dimensions      [0 1 -1 0 0 0 0];

internalField   nonuniform List<vector> 
400
(
(-0.000126235 0.000114806 0)
(-0.000983067 0.000370431 0)
(-0.00243446 0.00046191 0)
(-0.00390371 0.000487195 0)
(-0.0054007 0.000495132 0)
(-0.00688568 0.000500409 0)
(-0.00833934 0.000502225 0)
(-0.00973719 0.000494998 0)
(-0.0110406 0.000471608 0)
(-0.0121947 0.000423926 0)
(-0.0131261 0.000343164 0)
(-0.013743 0.000221001 0)
(-0.013938 5.15937e-05 0)
(-0.0135957 -0.000169815 0)
(-0.0126113 -0.000433893 0)
(-0.0109184 -0.000716788 0)
(-0.00853647 -0.000970045 0)
(-0.00567367 -0.00111322 0)
(-0.0024683 -0.00102058 0)
(-0.000385426 -0.000447258 0)
(-0.000414615 0.000997336 0)
(-0.00219756 0.00209802 0)
(-0.00492381 0.00248808 0)
(-0.00767267 0.00258276 0)
(-0.0104363 0.00257541 0)
(-0.0131321 0.00252664 0)
(-0.0157093 0.00243863 0)
(-0.0181145 0.00229425 0)
(-0.0202774 0.00206959 0)
(-0.0221067 0.0017372 0)
(-0.0234885 0.00126806 0)
(-0.0242857 0.000634903 0)
(-0.0243481 -0.000181882 0)
(-0.0235154 -0.0011763 0)
(-0.0216447 -0.00230533 0)
(-0.0186564 -0.00346959 0)
(-0.0146028 -0.00448205 0)
(-0.00980114 -0.00503219 0)
(-0.00448345 -0.00464539 0)
(-0.000844918 -0.00238194 0)
(-0.000537379 0.00257045 0)
(-0.0027364 0.0048856 0)
(-0.00603166 0.00568687 0)
(-0.00932839 0.00585678 0)
(-0.0126222 0.00579125 0)
(-0.0158164 0.00561523 0)
(-0.0188528 0.00533889 0)
(-0.021672 0.00493389 0)
(-0.0241976 0.00435751 0)
(-0.0263319 0.00355945 0)
(-0.0279527 0.0024864 0)
(-0.0289127 0.00108936 0)
(-0.0290338 -0.000663728 0)
(-0.0281192 -0.00276403 0)
(-0.0259869 -0.00512755 0)
(-0.022509 -0.00755635 0)
(-0.0177059 -0.00967191 0)
(-0.011932 -0.0108294 0)
(-0.00544951 -0.0100542 0)
(-0.00101134 -0.00541512 0)
(-0.00057618 0.00423647 0)
(-0.00294985 0.00784583 0)
(-0.00650121 0.00906506 0)
(-0.0100411 0.00929856 0)
(-0.0135786 0.00916544 0)
(-0.0170176 0.00885859 0)
(-0.0203058 0.00839648 0)
(-0.0233912 0.00774001 0)
(-0.0262043 0.00682739 0)
(-0.0286524 0.00558278 0)
(-0.0306124 0.00392262 0)
(-0.0319251 0.00176752 0)
(-0.0323906 -0.000938151 0)
(-0.0317566 -0.00420913 0)
(-0.0297477 -0.00794121 0)
(-0.0261228 -0.0118472 0)
(-0.020792 -0.0153312 0)
(-0.0141177 -0.0173204 0)
(-0.00638047 -0.0161777 0)
(-0.00111391 -0.00873621 0)
(-0.000583834 0.00598047 0)
(-0.00304317 0.010963 0)
(-0.0067425 0.0126226 0)
(-0.0104307 0.0129275 0)
(-0.0141321 0.0127375 0)
(-0.0177578 0.0123187 0)
(-0.0212693 0.0116998 0)
(-0.0246304 0.0108321 0)
(-0.0277881 0.00963391 0)
(-0.0306638 0.00799986 0)
(-0.0331401 0.00580585 0)
(-0.0350471 0.00292165 0)
(-0.036154 -0.000766766 0)
(-0.036133 -0.00531463 0)
(-0.0345708 -0.0106504 0)
(-0.0310335 -0.0164161 0)
(-0.0252069 -0.0217609 0)
(-0.0173736 -0.0250263 0)
(-0.0077728 -0.0235975 0)
(-0.00124019 -0.012622 0)
(-0.000583133 0.00776124 0)
(-0.00310573 0.0141849 0)
(-0.00692945 0.0163116 0)
(-0.0107495 0.0167041 0)
(-0.0146053 0.0164804 0)
(-0.0184192 0.015987 0)
(-0.0221722 0.0152669 0)
(-0.0258518 0.0142636 0)
(-0.0294319 0.0128762 0)
(-0.0328606 0.0109662 0)
(-0.0360417 0.00835744 0)
(-0.0388101 0.00484298 0)
(-0.0409018 0.000210214 0)
(-0.0419143 -0.00569483 0)
(-0.0412601 -0.0129135 0)
(-0.0382001 -0.0210866 0)
(-0.0320222 -0.0290938 0)
(-0.0227025 -0.0344759 0)
(-0.0101705 -0.0330538 0)
(-0.00145511 -0.0173893 0)
(-0.000580333 0.00956872 0)
(-0.00316555 0.0175009 0)
(-0.00711611 0.0201237 0)
(-0.0110697 0.0206228 0)
(-0.0150817 0.0203938 0)
(-0.0190879 0.019873 0)
(-0.0230947 0.0191237 0)
(-0.0271222 0.0180872 0)
(-0.0311835 0.0166468 0)
(-0.0352732 0.0146308 0)
(-0.0393438 0.0118037 0)
(-0.0432654 0.00785997 0)
(-0.0467696 0.00244142 0)
(-0.0494114 -0.00481044 0)
(-0.0504327 -0.0141639 0)
(-0.0486957 -0.0254191 0)
(-0.0428318 -0.0373069 0)
(-0.0319651 -0.0464109 0)
(-0.0148601 -0.0458699 0)
(-0.00196724 -0.023762 0)
(-0.000576099 0.0114036 0)
(-0.00322826 0.0209167 0)
(-0.00731241 0.024064 0)
(-0.011398 0.0246852 0)
(-0.0155571 0.0244764 0)
(-0.019741 0.0239764 0)
(-0.0239861 0.0232778 0)
(-0.0283538 0.0223297 0)
(-0.0329118 0.02101 0)
(-0.0377254 0.0191228 0)
(-0.0428334 0.0163756 0)
(-0.0482001 0.0123522 0)
(-0.0536431 0.00649344 0)
(-0.0587716 -0.00187226 0)
(-0.0627541 -0.0133379 0)
(-0.0640961 -0.0282666 0)
(-0.0604761 -0.0456968 0)
(-0.0488857 -0.0615755 0)
(-0.0249802 -0.0643753 0)
(-0.0034796 -0.0335077 0)
(-0.000571047 0.0132675 0)
(-0.00329703 0.0244394 0)
(-0.00752079 0.0281336 0)
(-0.0117273 0.0288811 0)
(-0.0160065 0.0287071 0)
(-0.0203251 0.0282673 0)
(-0.0247523 0.0276964 0)
(-0.0293975 0.0269664 0)
(-0.0343979 0.02597 0)
(-0.0399166 0.0245109 0)
(-0.0461297 0.0222651 0)
(-0.0531912 0.0187235 0)
(-0.0611524 0.0131284 0)
(-0.0698259 0.00445704 0)
(-0.078757 -0.00848066 0)
(-0.0864868 -0.0269666 0)
(-0.0891649 -0.0519094 0)
(-0.0787686 -0.0802259 0)
(-0.0455128 -0.0927851 0)
(-0.00760362 -0.0507152 0)
(-0.000568464 0.0151653 0)
(-0.00338229 0.0280779 0)
(-0.00775369 0.0323277 0)
(-0.0120602 0.0331853 0)
(-0.0164124 0.033039 0)
(-0.02079 0.0326786 0)
(-0.0252944 0.0322953 0)
(-0.0300845 0.0319037 0)
(-0.0353725 0.03144 0)
(-0.0414398 0.0307517 0)
(-0.0486483 0.0295467 0)
(-0.0574393 0.027312 0)
(-0.0683067 0.0232093 0)
(-0.0817718 0.0159748 0)
(-0.0982571 0.00369632 0)
(-0.116953 -0.016936 0)
(-0.130893 -0.0518381 0)
(-0.121921 -0.102682 0)
(-0.0775477 -0.137663 0)
(-0.0167303 -0.0832231 0)
(-0.000576731 0.0171133 0)
(-0.00350934 0.0318502 0)
(-0.00804567 0.0366381 0)
(-0.0124241 0.0375571 0)
(-0.0167822 0.0373973 0)
(-0.0211096 0.0370999 0)
(-0.0255342 0.0369271 0)
(-0.0302568 0.0369563 0)
(-0.0355552 0.0372027 0)
(-0.0418231 0.0376164 0)
(-0.0496217 0.0380388 0)
(-0.0597554 0.0381274 0)
(-0.0733705 0.0372577 0)
(-0.0921148 0.0343324 0)
(-0.117983 0.0266471 0)
(-0.149941 0.00596991 0)
(-0.173854 -0.044486 0)
(-0.161292 -0.133079 0)
(-0.112059 -0.201867 0)
(-0.0332254 -0.139467 0)
(-0.000613673 0.0191521 0)
(-0.00372943 0.0358023 0)
(-0.00846754 0.0410776 0)
(-0.0128852 0.0419648 0)
(-0.0171652 0.0416986 0)
(-0.0213036 0.0413919 0)
(-0.0254457 0.0413892 0)
(-0.0298139 0.0418475 0)
(-0.0347205 0.0428958 0)
(-0.0406277 0.044658 0)
(-0.0482399 0.0472426 0)
(-0.0586472 0.0507239 0)
(-0.0735168 0.0550683 0)
(-0.095389 0.0594867 0)
(-0.127096 0.0591884 0)
(-0.165239 0.0366413 0)
(-0.18866 -0.0374043 0)
(-0.170334 -0.170628 0)
(-0.134222 -0.273042 0)
(-0.049481 -0.228889 0)
(-0.000709801 0.0213383 0)
(-0.00412018 0.0399298 0)
(-0.00912948 0.0455305 0)
(-0.013563 0.0462197 0)
(-0.0176759 0.0457215 0)
(-0.0214651 0.0453013 0)
(-0.0250874 0.0453639 0)
(-0.0287573 0.0461487 0)
(-0.0327578 0.0479126 0)
(-0.0375163 0.0509909 0)
(-0.0437085 0.0558502 0)
(-0.052416 0.0631361 0)
(-0.0652789 0.0735005 0)
(-0.0843184 0.0857025 0)
(-0.111724 0.0910518 0)
(-0.142014 0.0628225 0)
(-0.15757 -0.0318437 0)
(-0.141495 -0.195241 0)
(-0.13164 -0.331018 0)
(-0.0495203 -0.337279 0)
(-0.00095601 0.0239596 0)
(-0.00491513 0.0447714 0)
(-0.010278 0.0506368 0)
(-0.0146259 0.0509533 0)
(-0.0184256 0.049925 0)
(-0.0217076 0.0490568 0)
(-0.024606 0.0488516 0)
(-0.0272736 0.0496279 0)
(-0.0298989 0.0517474 0)
(-0.0327479 0.0557232 0)
(-0.03623 0.0623231 0)
(-0.040935 0.0725794 0)
(-0.047761 0.0874733 0)
(-0.0570141 0.104535 0)
(-0.0703194 0.1119 0)
(-0.0827142 0.0785815 0)
(-0.0899459 -0.0243474 0)
(-0.0821088 -0.197672 0)
(-0.100184 -0.364081 0)
(-0.0341806 -0.424454 0)
(-0.00131758 0.027165 0)
(-0.00584943 0.0490152 0)
(-0.0118534 0.0542418 0)
(-0.0163101 0.053578 0)
(-0.0199029 0.0519915 0)
(-0.0225723 0.050854 0)
(-0.0245194 0.0505241 0)
(-0.0258708 0.051237 0)
(-0.0266892 0.0533553 0)
(-0.0269942 0.0574527 0)
(-0.0268163 0.0644107 0)
(-0.025962 0.0752505 0)
(-0.0245415 0.0908941 0)
(-0.0210899 0.107947 0)
(-0.0179831 0.115095 0)
(-0.0103617 0.0815375 0)
(-0.013548 -0.0192126 0)
(-0.0141988 -0.179847 0)
(-0.0606683 -0.365159 0)
(-0.0174016 -0.477253 0)
(-0.00339314 0.0300124 0)
(-0.01026 0.0570596 0)
(-0.0156478 0.0622185 0)
(-0.0191817 0.0610194 0)
(-0.0216048 0.0579099 0)
(-0.0232829 0.0552233 0)
(-0.0242524 0.0534556 0)
(-0.0244288 0.0528777 0)
(-0.0236247 0.0537954 0)
(-0.0215386 0.0566678 0)
(-0.017837 0.0622631 0)
(-0.0115706 0.0713067 0)
(-0.00269958 0.0844652 0)
(0.0117775 0.0984759 0)
(0.027373 0.104478 0)
(0.0477327 0.0760757 0)
(0.0483695 -0.0120343 0)
(0.0440864 -0.146825 0)
(-0.0300251 -0.343908 0)
(0.000346394 -0.505275 0)
(-0.00107512 0.0438039 0)
(-0.0083197 0.0592066 0)
(-0.0187085 0.0604651 0)
(-0.0224997 0.0561648 0)
(-0.0255306 0.0530005 0)
(-0.0266296 0.0508435 0)
(-0.0265218 0.0495231 0)
(-0.0251649 0.048946 0)
(-0.0224087 0.0492929 0)
(-0.0178217 0.0508381 0)
(-0.0109353 0.0542428 0)
(-0.000351734 0.0598117 0)
(0.0139656 0.0680501 0)
(0.0354818 0.0766155 0)
(0.0573041 0.0788328 0)
(0.0861656 0.0575778 0)
(0.0867552 -0.00862896 0)
(0.0808386 -0.109467 0)
(-0.00152641 -0.313958 0)
(0.0234193 -0.512031 0)
(-0.0125084 0.0324946 0)
(-0.0239076 0.0799624 0)
(-0.0229208 0.0793082 0)
(-0.0285606 0.0742078 0)
(-0.0298741 0.0668749 0)
(-0.0294076 0.060755 0)
(-0.0269658 0.0557679 0)
(-0.0228108 0.0518702 0)
(-0.0170073 0.0490637 0)
(-0.00918394 0.0471857 0)
(0.000596962 0.0466218 0)
(0.0138767 0.0473747 0)
(0.0299286 0.0501619 0)
(0.0524938 0.0529893 0)
(0.0722737 0.0543814 0)
(0.103174 0.0423575 0)
(0.102471 0.0028422 0)
(0.116085 -0.0700309 0)
(0.0473323 -0.28107 0)
(0.0588324 -0.496497 0)
(-0.0774826 0.0963197 0)
(-0.0631988 0.0590529 0)
(-0.0656112 0.0598862 0)
(-0.0438369 0.0532168 0)
(-0.0266021 0.0462917 0)
(-0.00656812 0.0411444 0)
(0.012339 0.0373858 0)
(0.0315099 0.0341918 0)
(0.0492162 0.0318619 0)
(0.0682941 0.0296592 0)
(0.0848845 0.0284137 0)
(0.105886 0.0274688 0)
(0.121162 0.0272148 0)
(0.150483 0.0273523 0)
(0.161233 0.0232892 0)
(0.204332 0.0155932 0)
(0.196658 -0.0187494 0)
(0.230371 -0.0773872 0)
(0.158738 -0.255819 0)
(0.126166 -0.437491 0)
(0.119556 0.140818 0)
(0.152304 0.0861939 0)
(0.228907 0.0635943 0)
(0.284363 0.0481151 0)
(0.325645 0.0374343 0)
(0.363922 0.0296512 0)
(0.392576 0.0241969 0)
(0.423722 0.0201474 0)
(0.443567 0.0172351 0)
(0.472202 0.0150074 0)
(0.484719 0.0132225 0)
(0.514481 0.0121412 0)
(0.519641 0.0109303 0)
(0.553099 0.0102074 0)
(0.548352 0.0085184 0)
(0.582906 0.00408777 0)
(0.553069 -0.00513786 0)
(0.559728 -0.0276242 0)
(0.424151 -0.0731862 0)
(0.276067 -0.151962 0)
)
;

boundaryField
{
    movingWall
    {
        type            fixedValue;
        value           uniform (1 0 0);
    }
    fixedWalls
    {
        type            noSlip;
    }
    frontAndBack
    {
        type            empty;
    }
}


// ************************************************************************* //
