/*--------------------------------*- C++ -*----------------------------------*\
  =========                 |
  \\      /  F ield         | OpenFOAM: The Open Source CFD Toolbox
   \\    /   O peration     | Website:  https://openfoam.org
    \\  /    A nd           | Version:  10
     \\/     M anipulation  |
\*---------------------------------------------------------------------------*/
FoamFile
{
    format      ascii;
    class       volVectorField;
    location    "6.2";
    object      U;
}
// * * * * * * * * * * * * * * * * * * * * * * * * * * * * * * * * * * * * * //

dimensions      [0 1 -1 0 0 0 0];

internalField   nonuniform List<vector> 
496
(
(9.99876 0.0932795 0)
(9.89131 -0.269794 0)
(10.3854 -0.125234 0)
(11.0014 -0.231577 0)
(10.2724 0.490845 0)
(9.50816 -1.43616 0)
(10.5773 -0.348002 0)
(10.7625 -1.24293 0)
(11.6195 1.39681 0)
(8.15423 -3.1052 0)
(11.7567 0.13856 0)
(10.0966 -4.2705 0)
(13.3346 1.38244 0)
(6.85398 -2.39812 0)
(14.5358 0.40936 0)
(8.97378 -6.41417 0)
(11.6193 -0.255001 1.97293e-18)
(12.3282 -0.199967 8.65214e-19)
(11.7892 -0.676376 -1.51238e-18)
(12.5201 0.0836375 3.21506e-18)
(12.9707 -2.10373 -4.62596e-19)
(12.572 -0.354102 -4.08186e-18)
(14.787 -5.73473 -3.81001e-17)
(14.6053 -4.22003 6.69299e-17)
(12.887 -0.136511 0)
(13.1581 -0.0916314 0)
(13.2274 0.106087 0)
(13.0821 0.253653 0)
(13.1299 0.00806555 0)
(13.5593 -0.210575 0)
(13.8086 -0.381937 0)
(13.5673 -0.509043 0)
(12.2436 0.816705 0)
(12.4541 1.20772 0)
(12.7403 1.15711 0)
(12.7428 0.947949 0)
(13.2658 -3.62125 0)
(10.2062 -1.22199 0)
(11.6688 -1.37597 0)
(11.1052 -0.0148039 0)
(12.9687 0.308249 0)
(12.8442 0.343773 0)
(12.9051 0.39238 0)
(12.7558 0.366784 0)
(12.6101 0.264891 0)
(12.3748 0.215892 0)
(12.5731 0.183759 0)
(12.7175 0.188868 0)
(12.9539 0.110872 0)
(12.8348 0.0996083 0)
(12.8901 0.0823973 0)
(12.8187 0.162943 0)
(12.9561 0.199262 0)
(12.8943 0.27833 0)
(12.8749 0.319955 0)
(12.7022 0.360379 0)
(12.5605 0.401547 0)
(12.4161 0.403577 0)
(12.2809 0.451827 0)
(12.1892 0.431575 0)
(12.063 0.477087 0)
(11.9537 0.449389 0)
(11.84 0.463547 0)
(11.6492 0.454815 0)
(11.5569 0.431804 0)
(11.2749 0.439146 0)
(11.2524 0.386526 0)
(10.9851 0.398129 0)
(11.0016 0.32735 0)
(10.8067 0.313234 0)
(10.7922 0.243441 0)
(10.762 0.197585 0)
(10.7305 0.180058 0)
(10.8525 0.134386 0)
(10.7939 0.181049 0)
(10.8747 0.153678 0)
(10.7859 0.237986 0)
(10.6083 0.222187 0)
(10.5103 0.261572 0)
(10.0151 0.295908 0)
(13.437 -0.520277 0)
(13.3114 -0.372935 0)
(13.3801 -0.168946 0)
(13.1128 -0.204047 0)
(13.0168 -0.276001 0)
(12.8899 -0.290736 0)
(13.1689 -0.19008 0)
(13.3246 -0.127399 0)
(13.5517 -0.217203 0)
(13.5711 -0.240083 0)
(13.7043 -0.29578 0)
(13.7682 -0.170648 0)
(13.8882 -0.165303 0)
(13.9273 -0.0765945 0)
(13.8842 -0.104563 0)
(13.8064 -0.101497 0)
(13.6734 -0.112619 0)
(13.597 -0.164458 0)
(13.505 -0.123081 0)
(13.4378 -0.195439 0)
(13.3804 -0.106587 0)
(13.2627 -0.187774 0)
(13.231 -0.107934 0)
(13.0555 -0.124823 0)
(13.0031 -0.105304 0)
(12.8016 -0.0549226 0)
(12.7414 -0.114279 0)
(12.6085 -0.0447303 0)
(12.516 -0.169931 0)
(12.4676 -0.103177 0)
(12.3493 -0.192934 0)
(12.4326 -0.170888 0)
(12.3859 -0.18527 0)
(12.5332 -0.213034 0)
(12.5834 -0.135211 0)
(12.6532 -0.122211 0)
(12.757 0.0612767 0)
(12.5588 0.0966395 0)
(12.6367 0.295666 0)
(12.262 0.206832 0)
(13.0642 0.769532 0)
(13.1855 0.538173 0)
(13.1259 0.564406 0)
(12.8257 0.277723 0)
(12.6233 -0.0271121 0)
(12.7007 -0.17655 0)
(12.876 -0.126563 0)
(13.1017 -0.0819959 0)
(12.99 -0.199254 0)
(13.2283 -0.121356 0)
(13.1486 -0.169818 0)
(13.4335 0.0976863 0)
(13.3961 0.11469 0)
(13.5192 0.321095 0)
(13.5214 0.311395 0)
(13.4278 0.381807 0)
(13.5426 0.446412 0)
(13.3534 0.387389 0)
(13.575 0.533143 0)
(13.4084 0.408262 0)
(13.5911 0.582821 0)
(13.4455 0.438547 0)
(13.553 0.569567 0)
(13.5185 0.564052 0)
(13.4033 0.531064 0)
(13.4708 0.686291 0)
(13.2048 0.525883 0)
(13.3038 0.676784 0)
(13.0191 0.396865 0)
(13.0817 0.433001 0)
(12.9003 0.196627 0)
(12.8109 0.0621481 0)
(12.8143 0.046896 0)
(12.6372 -0.203506 0)
(12.8562 0.0792279 0)
(12.7707 -0.155756 0)
(13.0816 0.257813 0)
(13.1004 0.243224 0)
(13.3554 0.571233 0)
(13.2652 0.814535 0)
(11.1416 0.0678495 0)
(10.8277 0.14332 0)
(10.8477 0.36466 0)
(10.5103 -0.158026 0)
(8.97759 -0.205307 0)
(9.16187 0.121025 0)
(9.5401 -0.170134 0)
(9.03763 -0.323259 0)
(9.1306 -0.471416 0)
(9.10571 -0.553597 0)
(8.97816 -0.493969 0)
(9.2774 -0.423382 0)
(8.71364 -0.303505 0)
(9.22966 -0.151973 0)
(8.43917 -0.0809643 0)
(9.01713 0.015238 0)
(8.4634 0.0304724 0)
(8.80515 0.0287934 0)
(8.78133 0.0389331 0)
(8.9318 -0.0278684 0)
(9.19435 -0.0836261 0)
(8.94301 -0.0467506 0)
(9.75638 -0.0219162 0)
(9.40306 -0.0347187 0)
(9.81483 0.0455934 0)
(10.0243 0.100666 0)
(9.82202 0.143129 0)
(10.1318 0.190768 0)
(9.50505 0.181045 0)
(9.72952 0.217553 0)
(8.94333 0.171442 0)
(8.9289 0.143501 0)
(8.62496 0.104949 0)
(8.31403 -0.049913 0)
(8.80106 -0.0833473 0)
(8.5088 -0.259813 0)
(9.35153 -0.262635 0)
(9.53383 -0.243907 0)
(10.1714 -0.11584 0)
(10.8552 0.0786947 0)
(11.0785 0.569044 -1.04459e-17)
(9.1536 -0.820326 -1.7994e-17)
(10.1358 -0.181271 3.1197e-17)
(5.83344 -4.80005 -8.29974e-17)
(12.3397 -0.314594 1.0532e-17)
(8.10069 0.423564 1.80985e-17)
(11.599 0.362256 -3.14133e-17)
(4.93494 4.46345 8.42121e-17)
(-9.49165 2.41658 0)
(3.94113 -0.916339 0)
(-4.58494 2.8577 0)
(-2.07726 0.28732 0)
(-1.00074 0.833342 3.24108e-17)
(-1.7741 -3.60978 0)
(-3.55657 3.53034 0)
(0.795877 -1.85847 0)
(0.322611 0.32543 0)
(-1.32177 -0.490264 0)
(2.42222 2.62226 0)
(-0.217664 0.579378 0)
(-0.465175 -1.29411 0)
(3.80961 0.575724 0)
(-0.924915 -0.13459 0)
(1.61744 -0.211816 0)
(0.701118 0.103119 0)
(1.22922 0.173207 0)
(0.955542 0.163381 0)
(0.89648 0.448606 0)
(0.593917 0.523158 0)
(0.853239 0.398677 0)
(0.694302 0.321857 0)
(0.92197 0.349232 0)
(1.12842 0.235959 0)
(1.11194 0.148899 0)
(1.71803 0.373251 0)
(1.8656 0.180982 0)
(1.31198 -0.083379 0)
(2.52678 0.200571 0)
(2.30497 0.300277 0)
(2.21979 -0.0581137 0)
(2.75926 0.324138 0)
(3.01658 0.595468 0)
(2.72463 0.358372 0)
(3.06144 0.641478 0)
(3.0799 0.663272 0)
(3.17941 0.615096 0)
(3.06404 0.617839 0)
(3.36471 0.33808 0)
(3.24366 0.101199 0)
(3.5932 -0.158007 0)
(3.81673 -0.391979 0)
(3.97765 -0.603252 0)
(4.34615 -0.570035 0)
(4.61366 -0.586544 0)
(5.14847 -0.270657 0)
(5.15394 0.218213 0)
(0.0762819 -2.12994 0)
(-1.73467 -0.636286 0)
(-1.33375 0.593062 0)
(2.64794 -0.0167287 0)
(-0.29458 -1.08398 0)
(1.70362 0.49666 0)
(0.863991 0.457894 0)
(1.98884 -0.904483 0)
(1.39399 -0.575478 0)
(1.11105 -0.414936 0)
(0.820069 -0.328352 0)
(0.822366 -0.291348 0)
(1.11858 -0.403196 0)
(1.41423 -0.411796 0)
(1.13135 -0.215617 0)
(1.46758 -0.253386 0)
(1.79999 -0.285701 0)
(1.49919 -0.291918 0)
(2.15276 -0.504491 0)
(2.29031 -0.335382 0)
(2.10089 -0.318467 0)
(2.2739 -0.514147 0)
(2.83193 -0.439828 0)
(2.57056 -0.262876 0)
(2.21295 -0.21189 0)
(3.58342 -0.212391 0)
(2.77014 -0.0113598 0)
(3.28807 0.226647 0)
(3.85596 0.174941 0)
(3.75647 0.194219 0)
(4.34226 0.174837 0)
(4.51831 -0.0689963 0)
(4.56146 -0.129585 0)
(4.94009 -0.464584 0)
(4.83949 -0.729512 0)
(4.66842 -0.82383 0)
(4.57545 -0.849729 0)
(4.60699 -0.986434 0)
(4.21673 -0.546395 0)
(4.55047 0.0297 0)
(11.8965 -2.1082 0)
(8.52422 2.9848 0)
(12.3332 -1.50372 0)
(11.144 6.6348 0)
(10.7804 -1.71226 0)
(9.24971 3.41641 0)
(10.8875 -0.00743152 0)
(11.1054 4.2865 0)
(10.0671 -0.835938 0)
(9.64625 1.66074 0)
(10.1206 0.129884 0)
(10.7407 1.212 0)
(9.98409 -0.135498 0)
(9.7524 0.207683 0)
(10.1287 0.124491 0)
(10.7445 0.154455 0)
(12.0436 4.92401 3.43464e-17)
(16.7983 4.40731 -5.85653e-17)
(12.5244 2.46893 0)
(13.7879 0.679742 0)
(11.4781 0.506692 0)
(12.6098 -0.127015 0)
(11.4453 0.301424 0)
(12.1974 0.177723 0)
(8.24621 3.08913 0)
(11.9287 1.59996 0)
(9.65805 1.33463 0)
(10.4783 0.143608 0)
(12.859 0.344494 0)
(13.3212 -0.566585 0)
(13.5483 -0.493052 0)
(13.8172 -0.680562 0)
(13.1733 -0.0865795 0)
(13.6627 0.151056 0)
(14.1239 0.25004 0)
(14.1388 0.270787 0)
(12.917 0.258064 0)
(13.2146 0.284039 0)
(13.5363 0.190206 0)
(13.4606 0.0402829 0)
(11.2127 -0.0923367 0)
(11.3958 0.35512 0)
(10.7078 0.113239 0)
(10.971 -0.118636 0)
(11.0795 -0.233255 0)
(11.4492 -0.331823 0)
(10.5817 -0.195409 0)
(11.3642 -0.0695904 0)
(11.3975 0.198442 0)
(11.1379 0.425611 0)
(10.9737 0.538507 0)
(10.3259 0.535834 0)
(10.3701 0.404365 0)
(9.95393 0.291579 0)
(10.2179 0.164717 0)
(9.9179 0.0714328 0)
(10.0834 0.000746707 0)
(10.1193 -0.0519247 0)
(10.0813 -0.0614308 0)
(10.4058 -0.0810216 0)
(10.0112 -0.0593363 0)
(10.3865 -0.0596045 0)
(10.0097 -0.0452183 0)
(10.1522 0.00125556 0)
(9.91951 0.0604521 0)
(9.77136 0.0817062 0)
(10.1357 0.0490758 0)
(9.71678 0.201448 0)
(10.27 0.126111 0)
(10.2245 0.186723 0)
(10.6511 0.108697 0)
(11.0512 0.0101437 0)
(11.1618 -0.0353817 0)
(11.8088 -0.202665 0)
(11.6016 -0.171073 0)
(12.1036 -0.256452 0)
(11.3309 -0.147165 0)
(11.285 -0.154293 0)
(10.4718 -0.173122 0)
(9.79527 0.0392638 0)
(13.845 -0.688752 0)
(13.9889 -0.783828 0)
(13.6529 -0.72148 0)
(13.5512 -0.872473 0)
(13.2097 -0.927885 0)
(13.1484 -0.960424 0)
(13.19 -0.614162 0)
(13.0688 -0.336273 0)
(13.1671 -0.229605 0)
(13.02 -0.0358567 0)
(13.1898 -0.0934241 0)
(13.0183 0.0094587 0)
(13.2242 -0.15782 0)
(13.1352 -0.151563 0)
(13.2027 -0.340634 0)
(13.1537 -0.43248 0)
(13.0443 -0.492104 0)
(13.0813 -0.628516 0)
(12.874 -0.542746 0)
(12.9537 -0.68107 0)
(12.7251 -0.494473 0)
(12.795 -0.559373 0)
(12.6726 -0.403295 0)
(12.6529 -0.327054 0)
(12.6883 -0.313305 0)
(12.5021 -0.0891061 0)
(12.7362 -0.28306 0)
(12.5504 -0.0712591 0)
(12.8401 -0.29317 0)
(12.7206 -0.227067 0)
(12.9215 -0.415538 0)
(12.8518 -0.603808 0)
(12.7636 -0.648495 0)
(12.6911 -0.951992 0)
(12.3234 -0.763257 0)
(12.3336 -0.937292 0)
(11.9468 -0.445845 0)
(11.9926 -0.26381 0)
(11.7869 0.182222 0)
(11.8074 0.404557 0)
(14.0727 0.272407 0)
(13.8721 0.0978483 0)
(13.6779 0.0218104 0)
(13.387 -0.0265864 0)
(13.1495 0.0638584 0)
(12.9704 0.154075 0)
(12.8751 0.258505 0)
(12.8179 0.390988 0)
(12.8797 0.530028 0)
(12.9136 0.621665 0)
(13.0629 0.597597 0)
(13.1586 0.622014 0)
(13.3553 0.524795 0)
(13.4021 0.494075 0)
(13.4943 0.378211 0)
(13.4279 0.32178 0)
(13.3832 0.260961 0)
(13.2632 0.200392 0)
(13.16 0.220578 0)
(13.0719 0.153517 0)
(12.944 0.242547 0)
(12.9081 0.184819 0)
(12.8059 0.256041 0)
(12.8055 0.224148 0)
(12.7575 0.213966 0)
(12.7487 0.238021 0)
(12.7837 0.15917 0)
(12.7795 0.203397 0)
(12.8675 0.0776058 0)
(12.7508 0.11181 0)
(12.7834 -0.0258807 0)
(12.5762 -0.0427868 0)
(12.5414 -0.0681466 0)
(12.3225 -0.0752778 0)
(12.1643 0.0696412 0)
(12.0079 0.0381095 0)
(11.7598 0.239505 0)
(11.8215 0.20717 0)
(11.6624 0.357005 0)
(11.9522 0.347915 0)
(13.3936 -0.062096 0)
(13.1362 -0.22478 0)
(13.0747 -0.292402 0)
(12.715 -0.337808 0)
(12.3917 -0.371765 0)
(12.0813 -0.477929 0)
(12.0766 -0.5474 0)
(12.0486 -0.50033 0)
(12.0345 -0.468685 0)
(12.023 -0.42226 0)
(12.134 -0.449667 0)
(12.2777 -0.412613 0)
(12.4556 -0.448421 0)
(12.5159 -0.429071 0)
(12.5606 -0.462169 0)
(12.4302 -0.487954 0)
(12.385 -0.500764 0)
(12.1592 -0.539346 0)
(12.1113 -0.502108 0)
(11.8868 -0.534798 0)
(11.8506 -0.46042 0)
(11.6721 -0.46407 0)
(11.6377 -0.402854 0)
(11.5525 -0.371537 0)
(11.4904 -0.352384 0)
(11.4734 -0.297307 0)
(11.3936 -0.325114 0)
(11.4205 -0.278466 0)
(11.3487 -0.34447 0)
(11.25 -0.321298 0)
(11.161 -0.37039 0)
(10.8827 -0.378733 0)
(10.8301 -0.378565 0)
(10.4102 -0.419827 0)
(10.3772 -0.365162 0)
(10.0412 -0.384454 0)
(10.0319 -0.267111 0)
(10.0114 -0.222167 0)
(10.0093 -0.124861 0)
(10.3032 -0.0757714 0)
)
;

boundaryField
{
    inlet
    {
        type            fixedValue;
        value           uniform (10 0 0);
    }
    outlet
    {
        type            zeroGradient;
    }
    obstacle
    {
        type            noSlip;
    }
    upperWall
    {
        type            noSlip;
    }
    lowerWall
    {
        type            noSlip;
    }
    frontAndBack
    {
        type            empty;
    }
}


// ************************************************************************* //
