/*--------------------------------*- C++ -*----------------------------------*\
  =========                 |
  \\      /  F ield         | OpenFOAM: The Open Source CFD Toolbox
   \\    /   O peration     | Website:  https://openfoam.org
    \\  /    A nd           | Version:  10
     \\/     M anipulation  |
\*---------------------------------------------------------------------------*/
FoamFile
{
    format      ascii;
    class       volVectorField;
    location    "4.225";
    object      U;
}
// * * * * * * * * * * * * * * * * * * * * * * * * * * * * * * * * * * * * * //

dimensions      [0 1 -1 0 0 0 0];

internalField   nonuniform List<vector> 
8000
(
(-5.43829e-05 6.69203e-05 -1.67529e-05)
(-0.000438522 0.000168135 1.77235e-05)
(-0.00106401 0.000192086 2.85825e-05)
(-0.00166232 0.000194455 3.32579e-05)
(-0.00225832 0.000191485 3.26456e-05)
(-0.00282789 0.000185994 2.89049e-05)
(-0.0033571 0.000177359 2.29298e-05)
(-0.00383195 0.000164323 1.50797e-05)
(-0.00423618 0.000145551 5.23139e-06)
(-0.00455184 0.000119795 -6.79358e-06)
(-0.00475902 8.64792e-05 -2.0381e-05)
(-0.00483663 4.55779e-05 -3.53165e-05)
(-0.00476384 -3.45498e-06 -5.14201e-05)
(-0.0045231 -5.97426e-05 -6.83678e-05)
(-0.00410367 -0.00012034 -8.49849e-05)
(-0.00350381 -0.000181181 -9.94701e-05)
(-0.00273805 -0.000236079 -0.000108558)
(-0.00185799 -0.000274226 -0.000107219)
(-0.000856353 -0.000268907 -9.19422e-05)
(-0.000156662 -0.000136005 -3.11592e-05)
(-0.000153212 0.000490909 -6.75232e-05)
(-0.000843061 0.000899106 -3.70023e-05)
(-0.00186721 0.000988035 -2.47547e-05)
(-0.00284605 0.000982044 -1.6073e-05)
(-0.00380871 0.000945604 -1.19212e-05)
(-0.00471745 0.000891274 -1.03851e-05)
(-0.00554871 0.000818753 -1.05026e-05)
(-0.00628034 0.000725282 -1.21851e-05)
(-0.00688816 0.000607785 -1.55996e-05)
(-0.00734611 0.000463475 -2.09614e-05)
(-0.0076262 0.00029069 -2.83333e-05)
(-0.00770125 8.83709e-05 -3.77195e-05)
(-0.00754492 -0.00014091 -4.91706e-05)
(-0.00713378 -0.000391009 -6.17503e-05)
(-0.00645465 -0.000651359 -7.4574e-05)
(-0.00550807 -0.000906026 -8.56454e-05)
(-0.00431772 -0.00113111 -9.10272e-05)
(-0.00295674 -0.00128434 -8.51181e-05)
(-0.001421 -0.00126404 -6.49395e-05)
(-0.00029728 -0.000749153 6.18759e-06)
(-0.000180674 0.00119054 -9.00763e-05)
(-0.000967655 0.00201149 -6.12802e-05)
(-0.00212195 0.0021805 -4.83975e-05)
(-0.0032209 0.00215255 -3.78173e-05)
(-0.00429933 0.00205687 -3.14679e-05)
(-0.00531616 0.00191938 -2.75268e-05)
(-0.00624625 0.00174125 -2.50699e-05)
(-0.007066 0.00151892 -2.4127e-05)
(-0.00774956 0.00124806 -2.49766e-05)
(-0.00826903 0.000924737 -2.791e-05)
(-0.00859511 0.00054636 -3.31223e-05)
(-0.00869604 0.000112342 -4.09869e-05)
(-0.0085393 -0.00037259 -5.1001e-05)
(-0.00809764 -0.000896319 -6.30284e-05)
(-0.00735293 -0.00143785 -7.59095e-05)
(-0.00630016 -0.00196512 -8.73523e-05)
(-0.00496042 -0.00243044 -9.27661e-05)
(-0.00341361 -0.00274891 -8.5652e-05)
(-0.0016521 -0.00271812 -6.29084e-05)
(-0.00035 -0.00169863 1.64303e-05)
(-0.000187608 0.00190578 -0.000107549)
(-0.00101768 0.00315698 -8.04889e-05)
(-0.002238 0.00340636 -6.73601e-05)
(-0.00339833 0.00335541 -5.56124e-05)
(-0.00453999 0.00320125 -4.79013e-05)
(-0.00562085 0.00298302 -4.24478e-05)
(-0.00661637 0.002703 -3.83791e-05)
(-0.00750328 0.00235639 -3.58172e-05)
(-0.00825547 0.00193701 -3.51478e-05)
(-0.00884384 0.00143878 -3.67978e-05)
(-0.00923627 0.000857301 -4.11465e-05)
(-0.00939803 0.000192214 -4.86094e-05)
(-0.0092904 -0.000551779 -5.93368e-05)
(-0.00887482 -0.00136014 -7.23845e-05)
(-0.00812102 -0.00220265 -8.67791e-05)
(-0.00701254 -0.00303128 -0.00010003)
(-0.00556162 -0.00377179 -0.000106804)
(-0.00385315 -0.00428928 -9.92519e-05)
(-0.00187519 -0.00426647 -7.36961e-05)
(-0.000398763 -0.00270708 1.66085e-05)
(-0.000191936 0.00267465 -0.000122937)
(-0.00106219 0.00438966 -9.69809e-05)
(-0.00234892 0.00472566 -8.36688e-05)
(-0.00357293 0.00465234 -7.11618e-05)
(-0.00478242 0.00443979 -6.27087e-05)
(-0.00593471 0.00414144 -5.65386e-05)
(-0.00700672 0.00376083 -5.18165e-05)
(-0.00797632 0.00329173 -4.8741e-05)
(-0.0088179 0.00272551 -4.77967e-05)
(-0.00950161 0.00205288 -4.95396e-05)
(-0.00999245 0.00126571 -5.44778e-05)
(-0.0102498 0.000359954 -6.30301e-05)
(-0.0102265 -0.000660779 -7.62851e-05)
(-0.00987068 -0.00178185 -9.25689e-05)
(-0.00913295 -0.00296664 -0.00011103)
(-0.00797629 -0.00415161 -0.000128696)
(-0.00639398 -0.00523144 -0.000138934)
(-0.00447311 -0.00600765 -0.000131843)
(-0.00219703 -0.00602188 -0.000102353)
(-0.000471941 -0.0038595 5.18325e-06)
(-0.000197584 0.00349489 -0.000139529)
(-0.00111737 0.00571151 -0.000114326)
(-0.00248587 0.0061426 -0.000100857)
(-0.00378859 0.0060493 -8.7739e-05)
(-0.00508177 0.00578092 -7.88058e-05)
(-0.00632237 0.0054067 -7.2292e-05)
(-0.00748962 0.00493168 -6.74115e-05)
(-0.00856356 0.00434796 -6.44504e-05)
(-0.00952004 0.0036437 -6.40062e-05)
(-0.0103293 0.00280492 -6.67954e-05)
(-0.0109541 0.00181743 -7.34759e-05)
(-0.0113481 0.000670117 -8.44963e-05)
(-0.0114539 -0.000640014 -0.000102703)
(-0.0112005 -0.00210407 -0.000124809)
(-0.0105117 -0.0036833 -0.000150605)
(-0.00931823 -0.00530021 -0.000176516)
(-0.00757941 -0.00681343 -0.00019389)
(-0.005375 -0.00794289 -0.000189304)
(-0.00267915 -0.00804642 -0.000154801)
(-0.000587452 -0.00520663 -2.09165e-05)
(-0.000204932 0.00437725 -0.000159667)
(-0.00118585 0.00714068 -0.000135351)
(-0.00265409 0.00767693 -0.000121735)
(-0.00405165 0.00756617 -0.000107905)
(-0.00544464 0.00724506 -9.84077e-05)
(-0.00678994 0.0068006 -9.15228e-05)
(-0.00807029 0.00623996 -8.6561e-05)
(-0.00926935 0.00555361 -8.39429e-05)
(-0.0103662 0.00472587 -8.44354e-05)
(-0.0113332 0.00373648 -8.9008e-05)
(-0.0121325 0.00256226 -9.8731e-05)
(-0.0127123 0.00118042 -0.000115047)
(-0.0130057 -0.000425275 -0.000139643)
(-0.0129193 -0.00225859 -0.000171145)
(-0.0123392 -0.00429096 -0.000209469)
(-0.0111475 -0.00643745 -0.000250232)
(-0.00924474 -0.00851827 -0.000281797)
(-0.00667942 -0.0101492 -0.000284709)
(-0.00340541 -0.0104351 -0.00024494)
(-0.000773668 -0.00683637 -7.20695e-05)
(-0.000213863 0.00533658 -0.000185046)
(-0.0012682 0.00870131 -0.000162138)
(-0.00285457 0.00935341 -0.000148319)
(-0.00436181 0.00922638 -0.000133422)
(-0.00586842 0.00885454 -0.00012295)
(-0.0073316 0.00834555 -0.000115315)
(-0.00873913 0.00770976 -0.000110006)
(-0.0100803 0.00693663 -0.000107654)
(-0.0113401 0.0060066 -0.000109279)
(-0.0124962 0.0048921 -0.000116223)
(-0.0135136 0.00355812 -0.000130143)
(-0.0143392 0.0019646 -0.000153263)
(-0.0148967 7.20137e-05 -0.000187581)
(-0.0150711 -0.00214377 -0.000234846)
(-0.0147025 -0.00468611 -0.000294234)
(-0.0136002 -0.00747906 -0.000361505)
(-0.0115693 -0.0103109 -0.000421028)
(-0.00857461 -0.0126714 -0.000443452)
(-0.00452571 -0.0133057 -0.00040087)
(-0.00108865 -0.00888367 -0.000172981)
(-0.000224766 0.00639072 -0.000217541)
(-0.00136625 0.0104213 -0.000196959)
(-0.00308981 0.0111989 -0.000182745)
(-0.00471972 0.0110534 -0.000166057)
(-0.0063502 0.0106299 -0.000153751)
(-0.00793939 0.0100605 -0.000144519)
(-0.00948202 0.0093606 -0.000138156)
(-0.0109756 0.00852 -0.000135597)
(-0.0124142 0.00751623 -0.00013822)
(-0.0137856 0.00631458 -0.000147879)
(-0.0150643 0.00486671 -0.000167005)
(-0.0162031 0.0031105 -0.000198653)
(-0.0171191 0.000974359 -0.000245865)
(-0.0176843 -0.00160888 -0.000319157)
(-0.0176913 -0.00469712 -0.000413687)
(-0.0168478 -0.00825798 -0.000527781)
(-0.0148124 -0.0120766 -0.000641774)
(-0.0113669 -0.0155087 -0.00071162)
(-0.00632726 -0.0167876 -0.000677504)
(-0.0016584 -0.011563 -0.000381248)
(-0.000239246 0.00756311 -0.000259791)
(-0.00148524 0.0123346 -0.000242916)
(-0.00336687 0.0132436 -0.000227822)
(-0.00513033 0.0130708 -0.000207992)
(-0.00689019 0.0125887 -0.000192262)
(-0.00860646 0.0119588 -0.000179855)
(-0.0102831 0.0112042 -0.000171047)
(-0.0119285 0.0103172 -0.000167201)
(-0.0135499 0.00927497 -0.000170169)
(-0.0151506 0.00803798 -0.000182519)
(-0.0167233 0.00654586 -0.000207892)
(-0.0182378 0.00471279 -0.000251053)
(-0.0196232 0.00242509 -0.000318148)
(-0.0207526 -0.0004555 -0.00042812)
(-0.0213763 -0.00405467 -0.000577577)
(-0.0210874 -0.00846842 -0.000772132)
(-0.0193382 -0.0135444 -0.000989996)
(-0.0155588 -0.0185354 -0.00116814)
(-0.00937765 -0.0209808 -0.00118586)
(-0.00276139 -0.0152312 -0.000844316)
(-0.000261439 0.00888767 -0.000315968)
(-0.001637 0.014486 -0.000304689)
(-0.00370142 0.0155235 -0.000287628)
(-0.00560683 0.0153025 -0.000262176)
(-0.00749531 0.0147443 -0.000240194)
(-0.00933038 0.0140455 -0.000221836)
(-0.0111278 0.0132399 -0.000208118)
(-0.0129092 0.0123257 -0.000200948)
(-0.0146985 0.0112838 -0.000202754)
(-0.0165205 0.0100752 -0.000217005)
(-0.0183962 0.00863379 -0.000249016)
(-0.0203318 0.00685442 -0.000306801)
(-0.0222971 0.00457922 -0.000402633)
(-0.0241785 0.00158808 -0.000551437)
(-0.0257424 -0.00238173 -0.000791322)
(-0.0264991 -0.00760174 -0.00111805)
(-0.025626 -0.0141548 -0.00152496)
(-0.0219704 -0.0213164 -0.00193446)
(-0.0148115 -0.0257931 -0.00214399)
(-0.00502426 -0.0205661 -0.00193382)
(-0.000300814 0.0104183 -0.0003932)
(-0.00184575 0.0169374 -0.000389754)
(-0.00412404 0.0180828 -0.0003684)
(-0.00617647 0.0177729 -0.000332765)
(-0.00818432 0.0171039 -0.000299543)
(-0.0101178 0.0163139 -0.000270485)
(-0.0120072 0.01545 -0.000247694)
(-0.0138892 0.0145195 -0.000233705)
(-0.0158054 0.0135128 -0.000231522)
(-0.0178064 0.0124012 -0.000245574)
(-0.019951 0.0111269 -0.000283118)
(-0.0223011 0.00958459 -0.000356193)
(-0.0249016 0.00759271 -0.00048331)
(-0.0277345 0.00485492 -0.000689656)
(-0.0306286 0.000916709 -0.00102915)
(-0.0331224 -0.00478526 -0.00155161)
(-0.0341995 -0.0127852 -0.00227042)
(-0.0318405 -0.0227219 -0.00312017)
(-0.0248469 -0.0306351 -0.00387066)
(-0.00991393 -0.028623 -0.00448114)
(-0.000379056 0.0122488 -0.000504631)
(-0.00216024 0.0197817 -0.000510707)
(-0.00469078 0.0209778 -0.000479804)
(-0.00688902 0.0205054 -0.000425381)
(-0.00899455 0.0196665 -0.00037224)
(-0.0109906 0.0187431 -0.000324559)
(-0.0129252 0.017795 -0.000285866)
(-0.0148492 0.0168412 -0.000259285)
(-0.0168196 0.015888 -0.000248178)
(-0.0189093 0.0149283 -0.000257537)
(-0.0212163 0.013933 -0.00029603)
(-0.0238707 0.012828 -0.000378901)
(-0.0270352 0.0114523 -0.000531728)
(-0.0308784 0.00947671 -0.000795165)
(-0.0354811 0.00630366 -0.00122708)
(-0.0406428 0.000947053 -0.00195217)
(-0.0453999 -0.00785242 -0.00305338)
(-0.0467749 -0.0207206 -0.00449602)
(-0.0427072 -0.0341256 -0.00619549)
(-0.0197891 -0.0414627 -0.0089808)
(-0.000545763 0.0145294 -0.000677205)
(-0.00268327 0.02318 -0.000696103)
(-0.00550473 0.0243362 -0.000648439)
(-0.0078275 0.0235916 -0.000558734)
(-0.00998761 0.0224711 -0.0004664)
(-0.0119921 0.021318 -0.000382615)
(-0.0139073 0.0202157 -0.000314395)
(-0.0157929 0.0191962 -0.000265425)
(-0.0177136 0.0182831 -0.00023815)
(-0.0197552 0.0175012 -0.000236731)
(-0.0220434 0.0168773 -0.000269853)
(-0.0247724 0.0164214 -0.000354139)
(-0.0282439 0.0160828 -0.000518606)
(-0.0328916 0.0156274 -0.0008069)
(-0.0392791 0.0144533 -0.00126392)
(-0.0479217 0.0111645 -0.00188917)
(-0.0584406 0.00333511 -0.00280075)
(-0.0670367 -0.0128577 -0.00400732)
(-0.0701267 -0.0362065 -0.00529951)
(-0.0356011 -0.0661435 -0.0116072)
(-0.00086154 0.0177173 -0.000954666)
(-0.00350552 0.0270461 -0.000941803)
(-0.00667872 0.0277916 -0.000844268)
(-0.00912008 0.0264851 -0.000682293)
(-0.0113007 0.0250042 -0.000533034)
(-0.0132364 0.023643 -0.000403258)
(-0.0150295 0.0224259 -0.000297903)
(-0.016758 0.0213544 -0.000218969)
(-0.0184828 0.0204594 -0.000167607)
(-0.0202732 0.0198052 -0.000146137)
(-0.0222398 0.0195034 -0.000157703)
(-0.0245865 0.0196939 -0.0002075)
(-0.0277128 0.0205331 -0.000299418)
(-0.0323361 0.0220428 -0.000410348)
(-0.0397498 0.023887 -0.000414773)
(-0.051782 0.0241579 6.21411e-05)
(-0.0702683 0.0189896 0.00137411)
(-0.0895704 -0.00332364 0.00428183)
(-0.103479 -0.0480444 0.00804159)
(-0.0513704 -0.121541 -0.00493058)
(-0.00212445 0.0211594 -0.00148506)
(-0.00591046 0.0330481 -0.00157325)
(-0.00884794 0.0333947 -0.00136219)
(-0.0110292 0.0315987 -0.00106504)
(-0.0128567 0.0293275 -0.000754795)
(-0.0145315 0.0271904 -0.000484617)
(-0.0161193 0.0253174 -0.000268231)
(-0.0176407 0.0237539 -0.000108417)
(-0.0190957 0.0225476 -6.30551e-07)
(-0.0204902 0.0217763 5.97274e-05)
(-0.0218728 0.0216151 7.58749e-05)
(-0.0233811 0.0223343 6.45291e-05)
(-0.0253964 0.0244009 9.26918e-05)
(-0.0287123 0.0281964 0.000365875)
(-0.0354772 0.0339599 0.00145737)
(-0.0485927 0.0386202 0.00480481)
(-0.0748333 0.0358312 0.0120194)
(-0.105751 -0.00322721 0.0228058)
(-0.132577 -0.0935431 0.0285449)
(-0.0555279 -0.219605 -0.00166959)
(-0.00143489 0.0326516 -0.00251065)
(-0.00588377 0.0369418 -0.00206543)
(-0.010957 0.035366 -0.00166253)
(-0.0134201 0.0316686 -0.00101974)
(-0.0155017 0.0289312 -0.000522041)
(-0.0168394 0.0267691 -0.000116429)
(-0.01782 0.0250419 0.000186369)
(-0.0185958 0.023611 0.0003915)
(-0.0192159 0.022488 0.000521444)
(-0.0196393 0.0217175 0.000587739)
(-0.0198056 0.0215422 0.000609447)
(-0.0196118 0.0222348 0.000637978)
(-0.0192532 0.0245951 0.000845416)
(-0.0190793 0.0288313 0.00170177)
(-0.0221474 0.0368685 0.00446655)
(-0.0307139 0.041854 0.0116166)
(-0.0617714 0.0366916 0.0257946)
(-0.0998179 -0.0318041 0.0392988)
(-0.139355 -0.173704 0.0322176)
(-0.0456634 -0.321956 -0.0224477)
(-0.0119403 0.030898 -0.00353745)
(-0.0214304 0.0531486 -0.00390478)
(-0.0171026 0.0487857 -0.00317529)
(-0.0177566 0.0438355 -0.00208352)
(-0.016346 0.0380791 -0.000944738)
(-0.0149642 0.0332695 -5.21443e-05)
(-0.0136208 0.0293593 0.000591517)
(-0.012384 0.0262209 0.00100796)
(-0.0112082 0.0237846 0.00125314)
(-0.00987442 0.0219195 0.00134047)
(-0.00835342 0.0207713 0.00132325)
(-0.00609908 0.0204937 0.00124335)
(-0.00363238 0.0218808 0.00136493)
(0.00102091 0.0252447 0.00229983)
(0.00224792 0.0329165 0.0053683)
(0.00693823 0.0386088 0.013255)
(-0.0128777 0.0307841 0.0280749)
(-0.0307239 -0.0576938 0.0384845)
(-0.0964297 -0.22636 0.0180302)
(-0.0250989 -0.378204 -0.0512733)
(-0.046288 0.0897723 -0.0114284)
(-0.0302954 0.0436383 -0.00697131)
(-0.0216165 0.0373571 -0.00430519)
(-0.00468835 0.0303504 -0.00173418)
(0.00910999 0.0241702 8.2405e-05)
(0.0220765 0.0201228 0.0013244)
(0.0327432 0.017507 0.00217566)
(0.0418071 0.015508 0.00269552)
(0.0490918 0.0140968 0.00298709)
(0.0556827 0.0128582 0.00302991)
(0.0609733 0.0122393 0.00287493)
(0.0671272 0.0116661 0.00248891)
(0.0720718 0.012128 0.00214194)
(0.0822694 0.0124634 0.00167567)
(0.0868536 0.0130568 0.0030277)
(0.111 0.0102232 0.00623274)
(0.0999777 -0.00515907 0.0135647)
(0.130024 -0.0779931 0.0252836)
(0.0138792 -0.230862 0.00238362)
(0.0257024 -0.366853 -0.0646669)
(0.117643 0.111615 -0.0111896)
(0.144435 0.059589 -0.011465)
(0.21698 0.0395857 -0.0107986)
(0.261294 0.0266299 -0.00919225)
(0.293869 0.0180184 -0.00732614)
(0.320238 0.0122886 -0.0057105)
(0.340425 0.00874887 -0.00411703)
(0.357637 0.00644734 -0.0028726)
(0.36959 0.00503618 -0.00162664)
(0.381966 0.00415458 -0.000721191)
(0.387854 0.00352263 3.38228e-05)
(0.399459 0.00343224 0.000679864)
(0.398972 0.00297449 0.00053793)
(0.415893 0.0034124 0.00143809)
(0.404261 0.00224971 0.000396827)
(0.433248 0.000168156 0.00211076)
(0.392412 -0.00752014 0.00182276)
(0.417489 -0.0290991 0.00105315)
(0.255787 -0.0717567 -0.00670357)
(0.166787 -0.139437 -0.0736328)
(-0.000114449 0.000121639 -4.49872e-05)
(-0.000785518 0.000318551 1.27626e-06)
(-0.00183968 0.000364503 1.91011e-05)
(-0.00283399 0.000363334 2.83994e-05)
(-0.00380415 0.000349352 2.91796e-05)
(-0.00471474 0.000329116 2.42531e-05)
(-0.00554453 0.000302384 1.53226e-05)
(-0.00627243 0.000267533 2.60904e-06)
(-0.00687481 0.000223149 -1.39685e-05)
(-0.00732547 0.000168043 -3.45722e-05)
(-0.00759702 0.000101148 -5.8816e-05)
(-0.00766246 2.27332e-05 -8.63875e-05)
(-0.00749577 -6.73509e-05 -0.000116461)
(-0.00707559 -0.000166308 -0.000148015)
(-0.00638982 -0.000269814 -0.000178699)
(-0.00543867 -0.000371462 -0.000205011)
(-0.00424331 -0.000461055 -0.000221192)
(-0.00287424 -0.000518776 -0.000219111)
(-0.00132111 -0.000491196 -0.000193312)
(-0.000241022 -0.000227046 -9.02116e-05)
(-0.000322666 0.000825326 -0.000130826)
(-0.00160306 0.00160078 -9.24448e-05)
(-0.00343168 0.00176855 -7.1214e-05)
(-0.00516071 0.00174114 -5.4073e-05)
(-0.00682833 0.00165005 -4.4908e-05)
(-0.00837421 0.00152266 -4.10193e-05)
(-0.00975948 0.00136101 -4.08922e-05)
(-0.0109483 0.00116236 -4.44281e-05)
(-0.0119032 0.000923918 -5.19199e-05)
(-0.0125857 0.000643527 -6.37401e-05)
(-0.0129568 0.000319857 -8.01086e-05)
(-0.0129805 -4.6698e-05 -0.000100989)
(-0.0126234 -0.000449637 -0.000125741)
(-0.0118583 -0.000877994 -0.000152699)
(-0.0106737 -0.00131452 -0.00017961)
(-0.00907623 -0.00173381 -0.00020238)
(-0.00710419 -0.00209654 -0.000213898)
(-0.00486263 -0.0023262 -0.000204892)
(-0.00234876 -0.00222393 -0.000170448)
(-0.000501502 -0.00122084 -4.86208e-05)
(-0.000388842 0.00196677 -0.000172055)
(-0.00187916 0.00350861 -0.000138803)
(-0.00397794 0.00382525 -0.000116352)
(-0.0059553 0.00374625 -9.55355e-05)
(-0.00785711 0.00353082 -8.22577e-05)
(-0.00961632 0.00323424 -7.39466e-05)
(-0.0111903 0.002863 -6.92202e-05)
(-0.0125401 0.00241489 -6.81853e-05)
(-0.0136251 0.00188669 -7.137e-05)
(-0.0144039 0.00127599 -7.93495e-05)
(-0.0148355 0.000582512 -9.25263e-05)
(-0.0148773 -0.00019062 -0.000111347)
(-0.0144888 -0.00103214 -0.000134726)
(-0.0136388 -0.00192017 -0.000161838)
(-0.0123092 -0.00282028 -0.000190034)
(-0.0105005 -0.00368156 -0.000214606)
(-0.00824925 -0.00442597 -0.000227225)
(-0.00567106 -0.00490105 -0.000217021)
(-0.00275877 -0.00471586 -0.000178696)
(-0.000597267 -0.00274671 -4.31393e-05)
(-0.000412769 0.00312831 -0.000206716)
(-0.00200313 0.00546704 -0.000178836)
(-0.00424248 0.00593277 -0.000155903)
(-0.00634903 0.00579886 -0.000132612)
(-0.00837823 0.00545833 -0.000116502)
(-0.0102608 0.00499417 -0.000105123)
(-0.0119543 0.00441682 -9.72437e-05)
(-0.0134197 0.00372385 -9.31838e-05)
(-0.0146158 0.0029108 -9.37091e-05)
(-0.0154993 0.00197377 -9.96668e-05)
(-0.0160249 0.000911685 -0.000111817)
(-0.016146 -0.000270097 -0.000130901)
(-0.0158121 -0.0015598 -0.000156483)
(-0.0149763 -0.00292767 -0.000186971)
(-0.0136052 -0.00432412 -0.000219756)
(-0.0116835 -0.00567251 -0.000249577)
(-0.00923589 -0.00685124 -0.000266573)
(-0.00638479 -0.00761998 -0.000257337)
(-0.00311814 -0.0073705 -0.000215147)
(-0.000675604 -0.00436133 -5.94664e-05)
(-0.000432835 0.00436897 -0.000239393)
(-0.00211834 0.00756212 -0.000216286)
(-0.00449815 0.0081865 -0.000192993)
(-0.0067369 0.00799656 -0.000167819)
(-0.00890016 0.00752836 -0.000149799)
(-0.0109173 0.00689435 -0.00013658)
(-0.0127475 0.00610914 -0.000127069)
(-0.0143531 0.00516968 -0.000121803)
(-0.0156929 0.00406936 -0.000121807)
(-0.0167222 0.0028011 -0.000128248)
(-0.0173911 0.0013602 -0.000142222)
(-0.0176449 -0.000251338 -0.000164671)
(-0.0174197 -0.00202241 -0.000196411)
(-0.0166484 -0.00391966 -0.000235149)
(-0.0152719 -0.00588183 -0.000278286)
(-0.0132456 -0.007806 -0.000319461)
(-0.0105684 -0.00951834 -0.000346189)
(-0.0073658 -0.0106673 -0.000340997)
(-0.00362172 -0.0103815 -0.000293784)
(-0.00078866 -0.00620068 -0.000104695)
(-0.000458423 0.0056922 -0.000275607)
(-0.00226146 0.00980662 -0.000257295)
(-0.00481434 0.0106024 -0.000233641)
(-0.00721656 0.0103568 -0.000206671)
(-0.00954549 0.00976041 -0.000187007)
(-0.0117295 0.00895779 -0.000172414)
(-0.0137305 0.00796803 -0.000161982)
(-0.0155136 0.00678705 -0.000156508)
(-0.0170393 0.00540482 -0.000157341)
(-0.0182625 0.0038087 -0.000166064)
(-0.019129 0.00198641 -0.000184262)
(-0.0195766 -6.93857e-05 -0.000213395)
(-0.0195239 -0.00235278 -0.000256181)
(-0.0188752 -0.00483799 -0.000309161)
(-0.0175345 -0.0074571 -0.000370342)
(-0.0154107 -0.010082 -0.000431988)
(-0.0124551 -0.0124766 -0.000477591)
(-0.00878226 -0.0141449 -0.000482689)
(-0.00436845 -0.0138779 -0.00043019)
(-0.000964103 -0.00835617 -0.000189137)
(-0.000491288 0.00711888 -0.000319741)
(-0.00244071 0.0122351 -0.000307229)
(-0.00520663 0.0132172 -0.000283104)
(-0.00780815 0.0129151 -0.000253878)
(-0.0103373 0.0121895 -0.000232112)
(-0.0127218 0.0112199 -0.000215789)
(-0.0149282 0.0100311 -0.000204291)
(-0.0169265 0.00861758 -0.000198792)
(-0.0186816 0.00696487 -0.000201096)
(-0.0201508 0.005052 -0.000213395)
(-0.0212789 0.0028543 -0.000237974)
(-0.0219931 0.000348446 -0.000277004)
(-0.022197 -0.00247518 -0.00033695)
(-0.0217627 -0.00561116 -0.000412682)
(-0.0205381 -0.00899892 -0.000503768)
(-0.0183614 -0.0124937 -0.000601091)
(-0.0151001 -0.0157893 -0.000682381)
(-0.010823 -0.0182008 -0.000711298)
(-0.00548617 -0.0180583 -0.00065627)
(-0.00124316 -0.0109851 -0.000337743)
(-0.000532071 0.00867484 -0.000375455)
(-0.00265969 0.01489 -0.000370627)
(-0.00568146 0.0160736 -0.000345689)
(-0.00851802 0.0157113 -0.00031312)
(-0.01128 0.0148524 -0.000288013)
(-0.0138951 0.0137164 -0.000268754)
(-0.0163371 0.012335 -0.000255207)
(-0.0185841 0.0107022 -0.000249095)
(-0.0206096 0.00879838 -0.000252879)
(-0.022378 0.00659193 -0.00026968)
(-0.0238377 0.004041 -0.000303235)
(-0.0249112 0.00109817 -0.000358518)
(-0.0254893 -0.00228007 -0.000439976)
(-0.0254077 -0.00612379 -0.000550864)
(-0.0244445 -0.0104062 -0.000690255)
(-0.0223329 -0.0149892 -0.000848903)
(-0.0187998 -0.0194996 -0.000997089)
(-0.0137897 -0.0230122 -0.0010793)
(-0.00721053 -0.0231981 -0.00103238)
(-0.00171339 -0.0143435 -0.000603644)
(-0.000582249 0.0103892 -0.000447023)
(-0.00292409 0.0178178 -0.000452716)
(-0.00624764 0.0192161 -0.000426199)
(-0.0093539 0.0187836 -0.000388283)
(-0.0123774 0.0177821 -0.000357494)
(-0.0152469 0.0164771 -0.000332937)
(-0.0179467 0.0149098 -0.000315234)
(-0.0204676 0.0130756 -0.000306875)
(-0.022797 0.01095 -0.000311211)
(-0.0249138 0.00848991 -0.000332605)
(-0.0267787 0.0056319 -0.00037669)
(-0.0283207 0.00229447 -0.000450704)
(-0.0294264 -0.00161581 -0.000562323)
(-0.029901 -0.00619476 -0.000727324)
(-0.0294433 -0.011491 -0.00094345)
(-0.0276431 -0.0174234 -0.00120603)
(-0.0240065 -0.023585 -0.00147845)
(-0.0181998 -0.0287654 -0.00167739)
(-0.0100232 -0.0296819 -0.00167116)
(-0.00257773 -0.018894 -0.00110264)
(-0.00064523 0.0122977 -0.000540454)
(-0.0032449 0.0210722 -0.000560608)
(-0.00692125 0.0226922 -0.000530945)
(-0.0103304 0.0221688 -0.000484179)
(-0.0136381 0.0210061 -0.000443641)
(-0.0167763 0.0195234 -0.000409664)
(-0.019744 0.0177751 -0.000384015)
(-0.0225496 0.0157607 -0.000370206)
(-0.0252017 0.0134537 -0.00037271)
(-0.0277032 0.0108005 -0.000397493)
(-0.0300409 0.00771503 -0.000452808)
(-0.0321677 0.00407362 -0.000549849)
(-0.0339887 -0.000288015 -0.0007032)
(-0.035301 -0.00555633 -0.000942738)
(-0.0357336 -0.0119317 -0.00127448)
(-0.0347076 -0.0194824 -0.00170826)
(-0.0314122 -0.0278663 -0.00220698)
(-0.0249809 -0.0355859 -0.00265333)
(-0.0149825 -0.038038 -0.00279)
(-0.00433641 -0.0255664 -0.00210866)
(-0.000728133 0.0144485 -0.000664989)
(-0.00364277 0.0247193 -0.000704783)
(-0.00773122 0.0265541 -0.000668893)
(-0.0114744 0.0259016 -0.00060724)
(-0.0150807 0.0245442 -0.000550095)
(-0.0184882 0.0228641 -0.00049982)
(-0.0217158 0.0209335 -0.000459874)
(-0.0247957 0.0187605 -0.000435052)
(-0.0277645 0.0163214 -0.000431095)
(-0.0306606 0.0135576 -0.000455805)
(-0.0335148 0.0103649 -0.000520678)
(-0.0363345 0.00657724 -0.000642495)
(-0.0390701 0.00194948 -0.000846098)
(-0.0415722 -0.00384087 -0.00117296)
(-0.0434682 -0.0112176 -0.00167881)
(-0.0440271 -0.0205556 -0.00237998)
(-0.0420576 -0.0318 -0.00327169)
(-0.0358339 -0.0432903 -0.00421566)
(-0.0244479 -0.0488527 -0.00479314)
(-0.00825723 -0.0364951 -0.00428794)
(-0.000845279 0.0169117 -0.000835667)
(-0.00415542 0.0288439 -0.000901372)
(-0.00872764 0.0308616 -0.000853394)
(-0.0128322 0.0300134 -0.000766436)
(-0.0167392 0.0284045 -0.000681198)
(-0.020398 0.0264898 -0.000603389)
(-0.0238541 0.024364 -0.000538922)
(-0.0271684 0.0220486 -0.000494078)
(-0.0304117 0.01953 -0.000475791)
(-0.0336676 0.016756 -0.000493595)
(-0.0370305 0.0136199 -0.000562479)
(-0.0405947 0.00993289 -0.000706858)
(-0.0444248 0.00538192 -0.000964917)
(-0.0485124 -0.000528926 -0.00139076)
(-0.0526257 -0.00850434 -0.0020873)
(-0.056077 -0.0194656 -0.00315595)
(-0.0573717 -0.0340117 -0.00465112)
(-0.0536459 -0.05077 -0.00646665)
(-0.0431417 -0.0624971 -0.00813963)
(-0.0173059 -0.0561083 -0.0089819)
(-0.00102624 0.019799 -0.00107826)
(-0.00485101 0.0335569 -0.00117583)
(-0.0099939 0.0356692 -0.00110389)
(-0.0144801 0.0345148 -0.000973404)
(-0.0186715 0.0325709 -0.000841334)
(-0.0225387 0.0303658 -0.000718239)
(-0.026162 0.0280155 -0.000613282)
(-0.0296339 0.0255591 -0.000534308)
(-0.0330608 0.0230032 -0.000488925)
(-0.0365739 0.0203176 -0.000487169)
(-0.0403409 0.0174189 -0.000545526)
(-0.0445768 0.0141327 -0.000692813)
(-0.0495452 0.0101219 -0.000977872)
(-0.0555221 0.0047656 -0.00148052)
(-0.0627255 -0.00295344 -0.00232737)
(-0.0709493 -0.0145446 -0.00371587)
(-0.0787086 -0.0318485 -0.00580414)
(-0.0817272 -0.055227 -0.00851624)
(-0.075941 -0.0787918 -0.0116584)
(-0.0337135 -0.0940216 -0.0160378)
(-0.00133954 0.0232736 -0.00144191)
(-0.00588207 0.0390994 -0.00158353)
(-0.0116832 0.0411971 -0.00147158)
(-0.016533 0.0395866 -0.00126519)
(-0.0209553 0.0371379 -0.00104789)
(-0.0249588 0.0344984 -0.000843695)
(-0.0286593 0.0318284 -0.000668941)
(-0.0321763 0.0291891 -0.000533109)
(-0.0356459 0.0266089 -0.000442305)
(-0.0392412 0.0240953 -0.000403907)
(-0.0432006 0.0216313 -0.000431811)
(-0.0478727 0.0191366 -0.000552956)
(-0.0537776 0.0163818 -0.000814539)
(-0.0616442 0.0128026 -0.0012856)
(-0.0723826 0.00723519 -0.00202515)
(-0.0869062 -0.00255857 -0.00301726)
(-0.104208 -0.0207359 -0.00420242)
(-0.116735 -0.0534714 -0.00521085)
(-0.116494 -0.101415 -0.00652012)
(-0.0470694 -0.166757 -0.0172974)
(-0.00178646 0.0278289 -0.00199443)
(-0.00719353 0.044989 -0.0021065)
(-0.0138891 0.0465673 -0.00189959)
(-0.0191654 0.0441278 -0.00155337)
(-0.0238093 0.0411697 -0.00121878)
(-0.0278348 0.03822 -0.000911851)
(-0.0314477 0.03536 -0.000647856)
(-0.0348202 0.0326202 -0.00043494)
(-0.0381068 0.0300511 -0.000277589)
(-0.0414817 0.027722 -0.000177935)
(-0.045196 0.0257288 -0.000135134)
(-0.0496686 0.0241677 -0.000146206)
(-0.0556346 0.0230989 -0.000195282)
(-0.0642996 0.0223045 -0.000198014)
(-0.0775313 0.020846 0.000174913)
(-0.0974835 0.0153466 0.00183568)
(-0.122937 -0.00225638 0.00617141)
(-0.139125 -0.0514375 0.0146048)
(-0.140977 -0.141008 0.0205816)
(-0.0382231 -0.270414 -0.00653318)
(-0.00378672 0.0322842 -0.00295793)
(-0.0111955 0.0544128 -0.0032797)
(-0.0175953 0.0555079 -0.00288179)
(-0.0226634 0.0523594 -0.00230268)
(-0.0269381 0.0481163 -0.00167636)
(-0.0307495 0.0439509 -0.00110478)
(-0.0341868 0.0401011 -0.00062047)
(-0.0373455 0.0366537 -0.000236436)
(-0.0403156 0.0336853 4.9554e-05)
(-0.0432227 0.0312889 0.000247743)
(-0.0462701 0.0296676 0.00038108)
(-0.0498094 0.0291439 0.000508915)
(-0.0545465 0.0302645 0.000806003)
(-0.0617003 0.0333573 0.00175615)
(-0.0734641 0.037912 0.00466229)
(-0.0914297 0.0379408 0.0124206)
(-0.11633 0.0207109 0.0282417)
(-0.127695 -0.05132 0.0496659)
(-0.136492 -0.187607 0.0536279)
(-0.0152472 -0.36406 -0.00625065)
(-0.00196136 0.0469841 -0.00474188)
(-0.00999739 0.0582528 -0.00432085)
(-0.0210788 0.0570013 -0.00356748)
(-0.0268313 0.0517165 -0.00242011)
(-0.0319092 0.0475418 -0.00147504)
(-0.0354174 0.0438228 -0.000643833)
(-0.0380653 0.0404696 3.49483e-05)
(-0.0401318 0.0373889 0.00056067)
(-0.0417945 0.0346732 0.000943155)
(-0.0431447 0.0324159 0.00120574)
(-0.0442477 0.0309763 0.00140927)
(-0.0451284 0.030749 0.00170019)
(-0.0461249 0.0328119 0.00248215)
(-0.0475099 0.0374744 0.00476953)
(-0.0515111 0.0455788 0.0110086)
(-0.0566867 0.0469453 0.0252824)
(-0.0749805 0.030941 0.0512542)
(-0.0777397 -0.0561405 0.075624)
(-0.101434 -0.228005 0.0600705)
(0.0104762 -0.432531 -0.0292832)
(-0.0117739 0.0389531 -0.00622767)
(-0.0262513 0.0817125 -0.00710407)
(-0.0268784 0.0778387 -0.00608257)
(-0.0337211 0.0711805 -0.00430595)
(-0.0358472 0.0628447 -0.002368)
(-0.0365114 0.0553171 -0.000746259)
(-0.0358675 0.0488162 0.000522267)
(-0.034474 0.0433063 0.00144436)
(-0.0326226 0.0387391 0.00207091)
(-0.0303192 0.03498 0.00242693)
(-0.0278495 0.0322703 0.00261671)
(-0.0246352 0.0308718 0.00277526)
(-0.0214078 0.0320551 0.00344084)
(-0.0154348 0.0359599 0.00576142)
(-0.0117409 0.0455576 0.0120011)
(0.00354833 0.050384 0.0261233)
(0.00186268 0.0417444 0.0490007)
(0.0315153 -0.0423991 0.069919)
(-0.013321 -0.243331 0.0414056)
(0.0569061 -0.459853 -0.0537914)
(-0.0751434 0.102519 -0.0168646)
(-0.0606853 0.0642009 -0.011271)
(-0.0599284 0.0615074 -0.00741697)
(-0.0391884 0.0530958 -0.0037215)
(-0.0213514 0.0448356 -0.00108148)
(-0.00232591 0.0386056 0.000968084)
(0.0150926 0.0339439 0.00260397)
(0.0315269 0.0299427 0.00376996)
(0.0458976 0.0268406 0.0045646)
(0.05976 0.0238566 0.00495653)
(0.0711575 0.0219721 0.00498349)
(0.0837788 0.0199854 0.00464967)
(0.0924564 0.0199469 0.00436548)
(0.109694 0.0197164 0.00384814)
(0.114423 0.0206966 0.00618318)
(0.154123 0.0188652 0.0116049)
(0.149129 -0.00319621 0.0181086)
(0.209924 -0.0537255 0.0358705)
(0.144956 -0.232691 0.015006)
(0.145383 -0.418817 -0.0699105)
(0.119537 0.139892 -0.016181)
(0.152123 0.0860449 -0.0170801)
(0.230965 0.0639 -0.0164505)
(0.285331 0.0486044 -0.014567)
(0.327468 0.0376844 -0.0122205)
(0.364726 0.0295619 -0.0101167)
(0.394129 0.0238536 -0.00787666)
(0.423357 0.0195784 -0.00598109)
(0.443112 0.0162427 -0.00410147)
(0.468503 0.0139197 -0.00237776)
(0.479482 0.011639 -0.00114872)
(0.505202 0.0104247 0.000294982)
(0.506149 0.00889401 0.000727558)
(0.537387 0.00835165 0.00156917)
(0.525807 0.00709148 0.00222598)
(0.564472 0.00456962 0.00187932)
(0.532457 -0.00316502 0.00491159)
(0.555236 -0.0239321 -0.00142136)
(0.431018 -0.07223 -0.00653363)
(0.301328 -0.147803 -0.0819875)
(-0.000126588 0.000126547 -6.0164e-05)
(-0.000871994 0.000350229 -4.70847e-05)
(-0.00204105 0.000402681 -3.54518e-05)
(-0.00313797 0.000400725 -2.64842e-05)
(-0.00420336 0.000383609 -2.30649e-05)
(-0.00519824 0.000359357 -2.42125e-05)
(-0.00610015 0.000327565 -2.90143e-05)
(-0.00688693 0.000286784 -3.74841e-05)
(-0.00753325 0.000235526 -4.96297e-05)