/*--------------------------------*- C++ -*----------------------------------*\
  =========                 |
  \\      /  F ield         | OpenFOAM: The Open Source CFD Toolbox
   \\    /   O peration     | Website:  https://openfoam.org
    \\  /    A nd           | Version:  10
     \\/     M anipulation  |
\*---------------------------------------------------------------------------*/
FoamFile
{
    format      ascii;
    class       surfaceScalarField;
    location    "7.625";
    object      phi;
}
// * * * * * * * * * * * * * * * * * * * * * * * * * * * * * * * * * * * * * //

dimensions      [0 3 -1 0 0 0 0];

internalField   nonuniform List<scalar> 
22800
(
-2.79121e-06
3.48431e-06
-6.8655e-07
-8.82172e-06
6.32201e-06
-2.915e-07
-1.59895e-05
7.24908e-06
-8.13461e-08
-2.36193e-05
7.59912e-06
3.06779e-08
-3.1447e-05
7.79868e-06
2.90396e-08
-3.93601e-05
7.96829e-06
-5.51286e-08
-4.7251e-05
8.09637e-06
-2.05496e-07
-5.49372e-05
8.12498e-06
-4.38818e-07
-6.214e-05
7.97471e-06
-7.71895e-07
-6.84656e-05
7.55202e-06
-1.22644e-06
-7.33955e-05
6.75438e-06
-1.82449e-06
-7.62969e-05
5.4834e-06
-2.58194e-06
-7.64672e-05
3.66934e-06
-3.49904e-06
-7.32209e-05
1.30324e-06
-4.54954e-06
-6.604e-05
-1.5273e-06
-5.65365e-06
-5.48025e-05
-4.55653e-06
-6.68101e-06
-4.0107e-05
-7.30088e-06
-7.3946e-06
-2.35873e-05
-9.01182e-06
-7.50782e-06
-8.08512e-06
-8.71217e-06
-6.79005e-06
-4.18769e-06
-3.89743e-06
-5.47038e-06
1.08641e-05
-1.90942e-06
-1.56609e-05
1.82624e-05
-1.74987e-06
-2.75286e-05
2.07099e-05
-1.59304e-06
-4.00516e-05
2.15684e-05
-1.44631e-06
-5.27836e-05
2.19309e-05
-1.40018e-06
-6.5491e-05
2.21107e-05
-1.43501e-06
-7.79515e-05
2.21021e-05
-1.54527e-06
-8.98596e-05
2.17802e-05
-1.74706e-06
-0.000100782
2.09641e-05
-2.06665e-06
-0.000110132
1.94375e-05
-2.53558e-06
-0.000117154
1.69627e-05
-3.18636e-06
-0.000120929
1.33021e-05
-4.04402e-06
-0.000120478
8.3303e-06
-5.11232e-06
-0.000114873
2.07913e-06
-6.38018e-06
-0.000103359
-5.32119e-06
-7.72053e-06
-8.5785e-05
-1.31812e-05
-8.94906e-06
-6.30408e-05
-2.02721e-05
-9.77303e-06
-3.75028e-05
-2.47258e-05
-9.82396e-06
-1.34011e-05
-2.40681e-05
-8.74575e-06
-1.29956e-05
-4.59315e-06
-6.38672e-06
1.98381e-05
-2.58731e-06
-1.81216e-05
3.25886e-05
-2.5914e-06
-3.16904e-05
3.67525e-05
-2.47381e-06
-4.59399e-05
3.81207e-05
-2.30279e-06
-6.03831e-05
3.85899e-05
-2.21583e-06
-7.47718e-05
3.87019e-05
-2.20244e-06
-8.88752e-05
3.84691e-05
-2.26356e-06
-0.000102379
3.77068e-05
-2.42274e-06
-0.000114834
3.61348e-05
-2.71558e-06
-0.000125619
3.34076e-05
-3.18579e-06
-0.000133916
2.91396e-05
-3.87988e-06
-0.000138726
2.29521e-05
-4.83915e-06
-0.000138874
1.45676e-05
-6.09026e-06
-0.000133133
3.95233e-06
-7.61412e-06
-0.000120494
-8.68108e-06
-9.27895e-06
-0.000100574
-2.2242e-05
-1.08593e-05
-7.4206e-05
-3.46811e-05
-1.19587e-05
-4.41487e-05
-4.27131e-05
-1.207e-05
-1.56023e-05
-4.19097e-05
-1.07049e-05
-2.31488e-05
-5.44907e-06
-6.6001e-06
2.95322e-05
-3.09395e-06
-1.88472e-05
4.8085e-05
-3.24929e-06
-3.29987e-05
5.40754e-05
-3.17137e-06
-4.78701e-05
5.59812e-05
-2.9891e-06
-6.29913e-05
5.65911e-05
-2.87995e-06
-7.81516e-05
5.67033e-05
-2.84119e-06
-9.31655e-05
5.63636e-05
-2.88058e-06
-0.000107768
5.534e-05
-3.03044e-06
-0.000121557
5.32608e-05
-3.33767e-06
-0.000133933
4.96461e-05
-3.86219e-06
-0.000144055
4.39343e-05
-4.6723e-06
-0.000150805
3.55376e-05
-5.83556e-06
-0.00015279
2.39576e-05
-7.40541e-06
-0.000148436
8.99564e-06
-9.39693e-06
-0.000136231
-9.19346e-06
-1.16925e-05
-0.000115157
-2.93687e-05
-1.39473e-05
-8.57371e-05
-4.84824e-05
-1.5619e-05
-5.10628e-05
-6.14463e-05
-1.59412e-05
-1.76561e-05
-6.1136e-05
-1.41803e-05
-3.36197e-05
-7.18521e-06
-6.52309e-06
3.95395e-05
-3.4842e-06
-1.88789e-05
6.4214e-05
-3.77315e-06
-3.32159e-05
7.21446e-05
-3.73229e-06
-4.83475e-05
7.46642e-05
-3.55143e-06
-6.38421e-05
7.55272e-05
-3.44154e-06
-7.95533e-05
7.58239e-05
-3.40937e-06
-9.53765e-05
7.56572e-05
-3.47041e-06
-0.000111138
7.47694e-05
-3.66762e-06
-0.000126528
7.27135e-05
-4.06306e-06
-0.000141022
6.88797e-05
-4.73908e-06
-0.000153794
6.2503e-05
-5.79763e-06
-0.000163617
5.27116e-05
-7.35066e-06
-0.000168808
3.86479e-05
-9.49898e-06
-0.000167237
1.9713e-05
-1.22881e-05
-0.00015668
-4.07245e-06
-1.56788e-05
-0.000135063
-3.18156e-05
-1.91697e-05
-0.000102145
-5.94261e-05
-2.19744e-05
-6.12038e-05
-7.95359e-05
-2.28514e-05
-2.07209e-05
-8.11139e-05
-2.05051e-05
-4.39555e-05
-1.03851e-05
-6.31972e-06
4.96909e-05
-3.83173e-06
-1.86165e-05
8.07622e-05
-4.25142e-06
-3.29815e-05
9.07584e-05
-4.24886e-06
-4.82298e-05
9.39908e-05
-4.07821e-06
-6.39764e-05
9.52563e-05
-3.98235e-06
-8.01572e-05
9.5984e-05
-3.97941e-06
-9.67771e-05
9.6372e-05
-4.09485e-06
-0.000113795
9.6173e-05
-4.3853e-06
-0.000131048
9.49e-05
-4.93344e-06
-0.000148155
9.18392e-05
-5.8534e-06
-0.000164382
8.60263e-05
-7.29635e-06
-0.000178468
7.62465e-05
-9.44858e-06
-0.000188451
6.11346e-05
-1.25034e-05
-0.000191568
3.9434e-05
-1.66047e-05
-0.000184424
1.05793e-05
-2.17949e-05
-0.000163512
-2.5156e-05
-2.75723e-05
-0.000126843
-6.34489e-05
-3.26455e-05
-7.72571e-05
-9.41913e-05
-3.4931e-05
-2.59473e-05
-0.000100583
-3.18405e-05
-5.38576e-05
-1.60451e-05
-6.03554e-06
5.99202e-05
-4.19375e-06
-1.8173e-05
9.76561e-05
-4.7564e-06
-3.24561e-05
0.000109836
-4.79467e-06
-4.76931e-05
0.000113863
-4.63524e-06
-6.35469e-05
0.000115666
-4.55599e-06
-8.0048e-05
0.000117074
-4.58892e-06
-9.73368e-05
0.000118434
-4.77277e-06
-0.000115548
0.000119566
-5.18231e-06
-0.000134732
0.000120012
-5.92813e-06
-0.000154748
0.000119025
-7.16967e-06
-0.000175093
0.000115504
-9.13216e-06
-0.000194647
0.00010792
-1.21199e-05
-0.000211316
9.43034e-05
-1.65001e-05
-0.000221695
7.24374e-05
-2.26248e-05
-0.000220836
4.04667e-05
-3.0746e-05
-0.000203619
-1.6496e-06
-4.07235e-05
-0.000164321
-5.24203e-05
-5.03264e-05
-0.000103757
-9.85821e-05
-5.61736e-05
-3.58906e-05
-0.000115789
-5.26601e-05
-6.31791e-05
-2.65692e-05
-5.67943e-06
7.02046e-05
-4.60493e-06
-1.75705e-05
0.00011488
-5.3327e-06
-3.16476e-05
0.000129325
-5.41142e-06
-4.66927e-05
0.000134162
-5.25414e-06
-6.24102e-05
0.000136563
-5.1797e-06
-7.89295e-05
0.000138831
-5.23728e-06
-9.65431e-05
0.00014153
-5.48268e-06
-0.000115598
0.000144635
-6.01386e-06
-0.000136429
0.00014782
-6.97715e-06
-0.000159254
0.000150442
-8.59268e-06
-0.000183989
0.000151431
-1.11917e-05
-0.000209928
0.00014912
-1.52607e-05
-0.000235244
0.000141089
-2.14683e-05
-0.000256306
0.000124109
-3.06097e-05
-0.000267041
9.45621e-05
-4.33603e-05
-0.000258369
4.9663e-05
-5.99848e-05
-0.000221641
-1.03215e-05
-7.88269e-05
-0.000149763
-7.76266e-05
-9.28334e-05
-5.70539e-05
-0.000117764
-9.07339e-05
-7.20996e-05
-4.81333e-05
-5.27163e-06
8.05702e-05
-5.09394e-06
-1.68466e-05
0.000132473
-6.01801e-06
-3.05741e-05
0.000149184
-6.13202e-06
-4.51801e-05
0.000154724
-5.95564e-06
-6.0396e-05
0.000157637
-5.85777e-06
-7.64425e-05
0.000160785
-5.90834e-06
-9.37616e-05
0.000165032
-6.18325e-06
-0.000112923
0.000170604
-6.80737e-06
-0.000134591
0.000177458
-7.96999e-06
-0.000159453
0.000185271
-9.96617e-06
-0.00018806
0.000193301
-1.3263e-05
-0.000220501
0.000200158
-1.8598e-05
-0.00025582
0.000203498
-2.70898e-05
-0.000291079
0.000199623
-4.02546e-05
-0.000319966
0.00018321
-5.97617e-05
-0.00033145
0.000147299
-8.61522e-05
-0.00030765
8.42027e-05
-0.000118324
-0.00023176
-7.40579e-06
-0.000146111
-0.000104118
-9.70371e-05
-0.00014837
-8.57806e-05
-9.04366e-05
-4.87372e-06
9.1141e-05
-5.69714e-06
-1.61207e-05
0.000150578
-6.85867e-06
-2.93607e-05
0.000169421
-6.99657e-06
-4.32273e-05
0.000175356
-6.76527e-06
-5.74567e-05
0.000178463
-6.59644e-06
-7.23434e-05
0.000182257
-6.58448e-06
-8.84506e-05
0.000187967
-6.82756e-06
-0.000106536
0.000196168
-7.47778e-06
-0.000127562
0.000207251
-8.76758e-06
-0.000152699
0.000221478
-1.10703e-05
-0.00018328
0.000238886
-1.50045e-05
-0.000220591
0.000259072
-2.16021e-05
-0.000265382
0.000280788
-3.24991e-05
-0.000316924
0.000301137
-4.99723e-05
-0.000371273
0.000313922
-7.6363e-05
-0.000417478
0.000305569
-0.000112065
-0.000430575
0.000248527
-0.000151227
-0.000368239
0.000110845
-0.000180587
-0.000200667
-7.72891e-05
-0.00018732
-0.000136263
-0.000150184
-4.62125e-06
0.000102236
-6.47377e-06
-1.56564e-05
0.000169538
-7.92476e-06
-2.83213e-05
0.000190151
-8.06553e-06
-4.11271e-05
0.000195886
-7.72487e-06
-5.37914e-05
0.000198542
-7.41484e-06
-6.66614e-05
0.000202385
-7.25837e-06
-8.03628e-05
0.000209044
-7.37555e-06
-9.57434e-05
0.000219489
-7.94027e-06
-0.000113931
0.000234654
-9.21623e-06
-0.000136421
0.000255601
-1.16322e-05
-0.000165167
0.000283553
-1.59207e-05
-0.000202648
0.000319807
-2.32545e-05
-0.000251924
0.000365392
-3.5328e-05
-0.000316389
0.000419452
-5.38504e-05
-0.000398176
0.00047391
-7.82007e-05
-0.000491896
0.000500066
-0.000100777
-0.000570484
0.00043406
-0.000106945
-0.000558421
0.000188645
-8.98636e-05
-0.000355585
-0.000179454
-0.000100671
-0.000325728
-0.00016612
-4.77648e-06
0.000114545
-7.53255e-06
-1.59461e-05
0.000190058
-9.35049e-06
-2.80524e-05
0.000211731
-9.47356e-06
-3.94782e-05
0.000216261
-8.9492e-06
-4.9954e-05
0.000217412
-8.39389e-06
-5.98586e-05
0.000220265
-7.97547e-06
-6.98002e-05
0.000226823
-7.83747e-06
-8.05532e-05
0.000238406
-8.16487e-06
-9.31579e-05
0.000256487
-9.22812e-06
-0.000109062
0.000282956
-1.14506e-05
-0.000130351
0.000320376
-1.55345e-05
-0.000160142
0.000371876
-2.22784e-05
-0.00020345
0.000440792
-3.20927e-05
-0.000268822
0.000526708
-4.18842e-05
-0.000370169
0.000614615
-3.93578e-05
-0.000518958
0.000649531
-6.76111e-07
-0.00070112
0.000519987
9.62359e-05
-0.000778003
7.32359e-05
0.000192292
-0.000521753
-0.000580094
0.00014439
-0.000779882
-6.75995e-05
-5.79995e-06
0.000129384
-9.0386e-06
-1.78004e-05
0.000213307
-1.12485e-05
-2.95169e-05
0.000234694
-1.12465e-05
-3.92859e-05
0.000236438
-1.04072e-05
-4.69438e-05
0.00023456
-9.49067e-06
-5.29183e-05
0.000234943
-8.70392e-06
-5.77355e-05
0.000239832
-8.19202e-06
-6.18769e-05
0.000250667
-8.11948e-06
-6.59263e-05
0.000269265
-8.72852e-06
-7.06877e-05
0.000298038
-1.03208e-05
-7.76187e-05
0.000340574
-1.32669e-05
-8.96212e-05
0.000401085
-1.72059e-05
-0.00011379
0.000484105
-1.91438e-05
-0.000167221
0.000586907
-6.76777e-06
-0.000289322
0.000687494
4.92224e-05
-0.000530388
0.000698314
0.000192283
-0.00087628
0.00045042
0.000415459
-0.00101481
-0.000339633
0.000551397
-0.000668691
-0.00131442
0.000388213
-0.00149578
4.72091e-05
-8.75244e-06
0.000149725
-1.15891e-05
-2.28146e-05
0.000241846
-1.44765e-05
-3.43234e-05
0.000260636
-1.44331e-05
-4.1951e-05
0.000257205
-1.314e-05
-4.60906e-05
0.000250263
-1.15629e-05
-4.73374e-05
0.000246259
-1.00685e-05
-4.59809e-05
0.000247352
-8.87674e-06
-4.20488e-05
0.000254911
-8.17541e-06
-3.53873e-05
0.000270727
-8.12373e-06
-2.5639e-05
0.000297088
-8.79754e-06
-1.30511e-05
0.000338047
-1.00605e-05
3.88818e-09
0.000397868
-9.83842e-06
2.90933e-06
0.000481945
-7.46334e-07
-3.51608e-05
0.00058507
3.99068e-05
-0.000187498
0.000683995
0.000155836
-0.000546786
0.000665653
0.000391949
-0.0010371
0.000254246
0.000686489
-0.00118244
-0.000935192
0.000740893
-0.000812659
-0.00207733
0.000393129
-0.00231798
9.53813e-06
-1.41035e-05
0.000179131
-1.53026e-05
-3.1737e-05
0.000277544
-1.80645e-05
-4.36308e-05
0.000290061
-1.7531e-05
-4.96084e-05
0.000278552
-1.53697e-05
-5.01175e-05
0.000263856
-1.30838e-05
-4.60545e-05
0.00025314
-1.09446e-05
-3.77584e-05
0.00024822
-9.16337e-06
-2.48571e-05
0.000249891
-7.88128e-06
-6.35745e-06
0.000259456
-7.22844e-06
1.91318e-05
0.000278593
-6.99412e-06
5.27842e-05
0.000311064
-6.66959e-06
9.40119e-05
0.000359634
-2.99327e-06
0.000132041
0.000429603
1.4313e-05
0.00012798
0.000515904
7.3227e-05
-2.12513e-05
0.000607287
0.000225941
-0.000414591
0.000560038
0.000498955
-0.000933002
2.73832e-06
0.000769918
-0.00114896
-0.00137476
0.000655531
-0.000902199
-0.0025845
0.000260409
-0.0030873
-0.000132878
-3.54501e-05
0.000237937
-2.3356e-05
-5.69086e-05
0.000326847
-2.7845e-05
-6.55992e-05
0.000325252
-2.64998e-05
-6.4633e-05
0.000300665
-2.30787e-05
-5.80158e-05
0.000276194
-1.89554e-05
-4.71872e-05
0.000257329
-1.50171e-05
-3.20186e-05
0.000244735
-1.16838e-05
-1.1137e-05
0.000238166
-9.15712e-06
1.74427e-05
0.000238452
-7.57575e-06
5.65197e-05
0.000246136
-6.62076e-06
0.000109305
0.000264002
-5.72332e-06
0.000177704
0.000292637
-1.40138e-06
0.000254298
0.000336442
1.65669e-05
0.000311499
0.000386797
7.19058e-05
0.000257456
0.000444281
0.000217048
-2.4048e-05
0.000386052
0.00045549
-0.000496622
-0.000170872
0.000646184
-0.000890659
-0.00146408
0.000483357
-0.000851318
-0.00280557
0.000181728
-0.00364942
-0.0002892
-3.01232e-05
0.000307029
-3.89683e-05
-6.92228e-05
0.000405068
-3.91207e-05
-8.57965e-05
0.000377162
-3.53369e-05
-8.83021e-05
0.000330914
-2.77431e-05
-7.87362e-05
0.000288439
-2.18109e-05
-6.07619e-05
0.000255756
-1.64016e-05
-3.61315e-05
0.000232085
-1.19811e-05
-4.4273e-06
0.000215177
-8.71557e-06
3.5729e-05
0.000205154
-6.85854e-06
8.79875e-05
0.000200195
-6.31711e-06
0.000156106
0.000202548
-6.66479e-06
0.000244717
0.000209414
-5.3883e-06
0.000349853
0.000224896
6.40954e-06
0.000459299
0.00023539
4.19616e-05
0.000516754
0.000245275
0.000141551
0.000414742
0.000176898
0.000311166
4.11047e-05
-0.000232423
0.000435189
-0.000495015
-0.00129563
0.000367666
-0.000684254
-0.00273804
0.000121704
-0.00390434
-0.000429328
-0.000180722
0.000535918
-4.81675e-05
-0.000177752
0.00046302
-6.09217e-05
-0.000148382
0.000407588
-5.9796e-05
-0.0001148
0.000348795
-5.14636e-05
-7.23434e-05
0.000284858
-3.88761e-05
-2.60127e-05
0.000236673
-2.7247e-05
2.26485e-05
0.0002018
-1.83758e-05
7.51319e-05
0.000174866
-1.21716e-05
0.000132732
0.000156462
-8.90884e-06
0.000200081
0.000141662
-8.81568e-06
0.000278939
0.000134665
-1.09752e-05
0.000375562
0.000127382
-1.4591e-05
0.000485044
0.000128525
-1.31106e-05
0.000600012
0.000117928
2.49409e-06
0.000693981
0.000101282
5.00237e-05
0.000702416
1.34908e-05
0.000154972
0.000508805
-0.000257334
0.000218521
-6.77531e-06
-0.00102566
0.000245613
-0.000378219
-0.00241285
4.62529e-05
-0.00371706
-0.000565502
-0.000371003
0.00107775
-0.000170829
-0.000261505
0.000481018
-0.000127497
-0.000105805
0.000350583
-9.86946e-05
6.53225e-05
0.000248804
-7.11373e-05
0.000228386
0.000175383
-5.35878e-05
0.000378017
0.000126726
-3.96847e-05
0.00051249
9.66769e-05
-2.93496e-05
0.000634529
7.50109e-05
-2.2185e-05
0.000746607
6.20757e-05
-1.7691e-05
0.000853947
5.07366e-05
-1.64142e-05
0.000960204
4.64557e-05
-1.80486e-05
0.00107115
3.98497e-05
-2.34156e-05
0.00119004
3.85297e-05
-2.88885e-05
0.00131002
2.688e-05
-2.89348e-05
0.00142463
5.81182e-06
-1.91395e-05
0.00148319
-6.89411e-05
2.38669e-05
0.0014091
-0.000258473
7.52346e-05
0.00100582
-0.0007303
0.000107916
0.000277089
-0.00168377
-3.45351e-07
-0.00274588
-0.00069409
0.00122684
-0.000149089
0.00186815
-0.000160289
0.0023783
-0.000159572
0.00277225
-0.000145144
0.00307532
-0.000127692
0.00331492
-0.00011287
0.00351036
-9.87626e-05
0.00367365
-8.82805e-05
0.00381338
-7.76538e-05
0.00393566
-7.15425e-05
0.00404646
-6.43413e-05
0.00414928
-6.29725e-05
0.00424562
-5.78062e-05
0.00433179
-5.92964e-05
0.00438614
-4.85312e-05
0.00436539
-4.81971e-05
0.00413348
-2.65626e-05
0.00346022
-5.70344e-05
0.001895
-0.00011855
-0.000850885
-4.76044e-06
5.46611e-06
-1.39222e-06
-1.5018e-05
1.124e-05
-1.274e-06
-2.72462e-05
1.32312e-05
-1.08434e-06
-4.00529e-05
1.38057e-05
-9.68407e-07
-5.29542e-05
1.39292e-05
-9.98834e-07
-6.57595e-05
1.39071e-05
-1.15695e-06
-7.82712e-05
1.37474e-05
-1.44122e-06
-9.01967e-05
1.33572e-05
-1.87049e-06
-0.000101102
1.26087e-05
-2.47478e-06
-0.000110395
1.13541e-05
-3.28802e-06
-0.000117314
9.43592e-06
-4.34122e-06
-0.000120952
6.7083e-06
-5.652e-06
-0.000120318
3.07581e-06
-7.20969e-06
-0.000114452
-1.45846e-06
-8.957e-06
-0.000102651
-6.69984e-06
-1.07547e-05
-8.47923e-05
-1.21506e-05
-1.2389e-05
-6.17589e-05
-1.68828e-05
-1.35451e-05
-3.60086e-05
-1.94075e-05
-1.38507e-05
-1.22611e-05
-1.76321e-05
-1.29054e-05
-7.7183e-06
-8.44025e-06
-1.07784e-05
1.72676e-05
-2.93257e-06
-3.00837e-05
3.21138e-05
-3.31829e-06
-5.24806e-05
3.72456e-05
-3.21056e-06
-7.57122e-05
3.86334e-05
-3.04234e-06
-9.88659e-05
3.86953e-05
-3.01257e-06
-0.000121462
3.81988e-05
-3.13016e-06
-0.000143056
3.72018e-05
-3.40614e-06
-0.000163084
3.55125e-05
-3.87467e-06
-0.000180803
3.28444e-05
-4.58269e-06
-0.000195263
2.88602e-05
-5.58226e-06
-0.000205294
2.32024e-05
-6.9214e-06
-0.00020953
1.55286e-05
-8.62884e-06
-0.000206584
5.71024e-06
-1.06922e-05
-0.000195126
-6.2325e-06
-1.3064e-05
-0.000174181
-1.98524e-05
-1.55133e-05
-0.000143704
-3.38319e-05
-1.77445e-05
-0.000105148
-4.59082e-05
-1.93038e-05
-6.23368e-05
-5.2399e-05
-1.96437e-05
-2.25406e-05
-4.81059e-05
-1.80683e-05
-2.37292e-05
-1.11228e-05
-1.32962e-05
3.18217e-05
-3.84514e-06
-3.65358e-05
5.73146e-05
-4.55265e-06
-6.32412e-05
6.59835e-05
-4.50634e-06
-9.07617e-05
6.81526e-05
-4.30142e-06
-0.00011805
6.79826e-05
-4.21516e-06
-0.000144556
6.6778e-05
-4.27564e-06
-0.000169778
6.46661e-05
-4.5055e-06
-0.000193101
6.13656e-05
-4.9526e-06
-0.000213723
5.64315e-05
-5.68092e-06
-0.00023061
4.93247e-05
-6.76366e-06
-0.000242477
3.94629e-05
-8.27293e-06
-0.000247828
2.63057e-05
-1.02651e-05
-0.00024497
9.5212e-06
-1.27598e-05
-0.000232175
-1.09564e-05
-1.56848e-05
-0.000208142
-3.43585e-05
-1.88057e-05
-0.000172501
-5.85936e-05
-2.17393e-05
-0.000126685
-7.98176e-05
-2.38647e-05
-7.51936e-05
-9.15649e-05
-2.43958e-05
-2.70502e-05
-8.45958e-05
-2.23583e-05
-4.28093e-05
-1.34192e-05
-1.42098e-05
4.75187e-05
-4.58115e-06
-3.90981e-05
8.45259e-05
-5.57229e-06
-6.76317e-05
9.69338e-05
-5.58808e-06
-9.70045e-05
9.99021e-05
-5.36582e-06
-0.000126167
9.95119e-05
-5.24699e-06
-0.00015461
9.76572e-05
-5.27707e-06
-0.000181888
9.45555e-05
-5.49212e-06
-0.000207444
8.98481e-05
-5.95666e-06
-0.000230528
8.29345e-05
-6.75708e-06
-0.000250122
7.30546e-05
-7.99753e-06
-0.000264886
5.93446e-05
-9.79002e-06
-0.000273122
4.09428e-05
-1.22373e-05
-0.000272802
1.72051e-05
-1.54093e-05
-0.000261684
-1.21787e-05
-1.92922e-05
-0.000237553
-4.65714e-05
-2.36107e-05
-0.00019919
-8.30526e-05
-2.7851e-05
-0.000147537
-0.000115979
-3.11112e-05
-8.76793e-05
-0.000135225
-3.21383e-05
-3.09999e-05
-0.000125996
-2.94599e-05
-6.36497e-05
-1.73447e-05
-1.44897e-05
6.37343e-05
-5.21009e-06
-4.01561e-05
0.00011289
-6.47068e-06
-6.96499e-05
0.000129245
-6.54984e-06
-0.000100092
0.00013312
-6.32683e-06
-0.000130481
0.000132663
-6.20378e-06
-0.000160409
0.00013042
-6.2445e-06
-0.000189553
0.00012673
-6.50128e-06
-0.000217493
0.000121181
-7.06033e-06
-0.000243606
0.000113024
-8.0389e-06
-0.000266964
0.00010126
-9.58577e-06
-0.000286214
8.46725e-05
-1.18762e-05
-0.000299451
6.19212e-05
-1.50917e-05
-0.000304138
3.17794e-05
-1.93862e-05
-0.000297241
-6.5211e-06
-2.48426e-05
-0.000275194
-5.30871e-05
-3.12105e-05
-0.0002352
-0.000104417
-3.77997e-05
-0.000176953
-0.000152948
-4.32519e-05
-0.000105852
-0.000183745
-4.54332e-05
-3.67886e-05
-0.000173825
-4.17386e-05
-8.68815e-05
-2.39419e-05
-1.45664e-05
8.02838e-05
-5.81477e-06
-4.07425e-05
0.000142167
-7.35245e-06
-7.09534e-05
0.000162707
-7.49968e-06
-0.000102264
0.00016764
-7.28713e-06
-0.000133744
0.000167339
-7.17879e-06
-0.000165122
0.000165078
-7.25932e-06
-0.000196256
0.000161371
-7.6012e-06
-0.000226935
0.000155793
-8.31861e-06
-0.000256757
0.000147482
-9.57032e-06
-0.000284986
0.000135204
-1.15681e-05
-0.000310368
0.00011734
-1.45815e-05
-0.000330882
9.19143e-05
-1.89281e-05
-0.00034347
5.67986e-05
-2.4935e-05
-0.000344095
1.03304e-05
-3.28304e-05
-0.00032732
-4.906e-05
-4.25971e-05
-0.000287724
-0.000118252
-5.33328e-05
-0.000222308
-0.00018803
-6.29806e-05
-0.000135506
-0.000237714
-6.77642e-05
-4.69442e-05
-0.000231664
-6.25628e-05
-0.000115292
-3.45786e-05
-1.45793e-05
9.71359e-05
-6.46653e-06
-4.11984e-05
0.000172341
-8.31096e-06
-7.2058e-05
0.000197303
-8.53087e-06
-0.000104155
0.000203429
-8.32806e-06
-0.000136637
0.0002035
-8.23469e-06
-0.000169403
0.000201615
-8.36011e-06
-0.000202544
0.000198541
-8.80165e-06
-0.000236141
0.000193916
-9.70869e-06
-0.000270135
0.000186842
-1.12944e-05
-0.000304157
0.000175914
-1.38572e-05
-0.00033727
0.000159126
-1.78055e-05
-0.000367593
0.00013379
-2.36721e-05
-0.000391802
9.65763e-05
-3.20693e-05
-0.000404588
4.40242e-05
-4.35329e-05
-0.000398816
-2.68055e-05
-5.87723e-05
-0.000365015
-0.000116051
-7.67253e-05
-0.00029481
-0.000214279
-9.42816e-05
-0.00018779
-0.00029616
-0.000104748
-6.75566e-05
-0.000306922
-9.76358e-05
-0.00015757
-5.18475e-05
-1.45623e-05
0.000114312
-7.21839e-06
-4.16096e-05
0.000203473
-9.4177e-06
-7.30589e-05
0.000233051
-9.71009e-06
-0.000105805
0.000240422
-9.50014e-06
-0.000139073
0.000240986
-9.39887e-06
-0.000172952
0.000239802
-9.54487e-06
-0.000207817
0.000237988
-1.00648e-05
-0.000244128
0.000235363
-1.11496e-05
-0.000282315
0.000231131
-1.30788e-05
-0.000322604
0.000223874
-1.62631e-05
-0.000364724
0.000211357
-2.13033e-05
-0.000407416
0.000190277
-2.90559e-05
-0.000447717
0.000156067
-4.06578e-05
-0.000479869
0.000103056
-5.74901e-05
-0.000495198
2.57844e-05
-8.06211e-05
-0.00047958
-8.16712e-05
-0.000109982
-0.000415406
-0.000216391
-0.000140889
-0.000287662
-0.000355536
-0.000161201
-0.000114828
-0.000418876
-0.000151613
-0.000240293
-8.02395e-05
-1.4547e-05
0.000131887
-8.12196e-06
-4.20377e-05
0.000235688
-1.07428e-05
-7.39887e-05
0.000269969
-1.10998e-05
-0.000107141
0.000278464
-1.08463e-05
-0.000140783
0.000279459
-1.06873e-05
-0.000175206
0.000279112
-1.07952e-05
-0.000211093
0.00027902
-1.13286e-05
-0.000249352
0.000279337
-1.25225e-05
-0.000291041
0.000279579
-1.4729e-05
-0.00033725
0.000278605
-1.84883e-05
-0.000388838
0.000274321
-2.46388e-05
-0.00044595
0.000263259
-3.4469e-05
-0.00050719
0.000240084
-4.98661e-05
-0.000568434
0.000197257
-7.32113e-05
-0.000620665
0.000124929
-0.000106674
-0.000648985
1.09981e-05
-0.000150502
-0.000617843
-0.000171092
-0.000194765
-0.000480447
-0.000419196
-0.000219847
-0.000222239
-0.000620613
-0.000204841
-0.000431644
-0.000121324
-1.46179e-05
0.000150052
-9.24477e-06
-4.26432e-05
0.000269231
-1.23756e-05
-7.49996e-05
0.000308109
-1.27792e-05
-0.000108208
0.00031733
-1.24224e-05
-0.000141603
0.000318381
-1.21247e-05
-0.000175663
0.000318684
-1.20964e-05
-0.00021138
0.000320437
-1.25279e-05
-0.000250117
0.000324291
-1.36937e-05
-0.000293629
0.000330332
-1.60095e-05
-0.000344067
0.000338109
-2.01365e-05
-0.000403925
0.000346326
-2.71514e-05
-0.000475782
0.000352315
-3.88017e-05
-0.0005618
0.000351342
-5.77391e-05
-0.000662756
0.000335421
-8.71807e-05
-0.000774994
0.000289214
-0.000128411
-0.000879344
0.000176832
-0.000173549
-0.000923477
-7.75657e-05
-0.00020062
-0.000796012
-0.000538312
-0.000188937
-0.000416686
-0.00101542
-0.000171841
-0.000844974
-0.00015354
-1.49595e-05
0.000169229
-1.06909e-05
-4.37804e-05
0.000304573
-1.44461e-05
-7.64923e-05
0.000347617
-1.48625e-05
-0.000109333
0.00035676
-1.43138e-05
-0.000141657
0.000357051
-1.37608e-05
-0.000174115
0.00035734
-1.34557e-05
-0.000207949
0.000360512
-1.3616e-05
-0.000244903
0.000367845
-1.45398e-05
-0.000287346
0.000380234
-1.66753e-05
-0.000338482
0.000398356
-2.07432e-05
-0.000402632
0.000422494
-2.7938e-05
-0.000485505
0.000452099
-4.0166e-05
-0.000594595
0.00048499
-5.98861e-05
-0.000738845
0.000513637
-8.78169e-05
-0.000922191
0.000509608
-0.000115249
-0.00112333
0.000388929
-0.00011173
-0.00125458
-1.68879e-05
-3.63823e-05
-0.00114179
-0.000802101
6.11386e-05
-0.000645238
-0.00162668
1.40377e-05
-0.001534
-0.000122331
-1.59381e-05
0.00019027
-1.26353e-05
-4.61293e-05
0.000342596
-1.7182e-05
-7.92567e-05
0.000388846
-1.75753e-05
-0.000111251
0.00039652
-1.67145e-05
-0.000141527
0.000394672
-1.57398e-05
-0.000170884
0.000393684
-1.4963e-05
-0.000200707
0.000397125
-1.46271e-05
-0.000232926
0.000406929
-1.50307e-05
-0.000270238
0.000424916
-1.6598e-05
-0.000316535
0.000453184
-1.99818e-05
-0.000377571
0.000494175
-2.61794e-05
-0.000461668
0.000550269
-3.63503e-05
-0.000580758
0.000621955
-4.99685e-05
-0.000749652
0.000698022
-5.73742e-05
-0.000976889
0.000723759
-2.62715e-05
-0.00124017
0.000550984
0.00010055
-0.00144071
-5.10352e-05
0.000330925
-0.0013371
-0.00118488
0.000471462
-0.00077765
-0.0022914
0.000249657
-0.00236202
-1.72282e-05
-1.8107e-05
0.000214671
-1.53332e-05
-5.06983e-05
0.000384731
-2.07922e-05
-8.45408e-05
0.000432459
-2.10166e-05
-0.000115301
0.000436527
-1.96546e-05
-0.000142494
0.000430451
-1.80762e-05
-0.000167074
0.0004262
-1.66401e-05
-0.000190472
0.000427919
-1.55877e-05
-0.000214497
0.000438008
-1.51741e-05
-0.000241599
0.000459015
-1.57261e-05
-0.000275436
0.00049433
-1.7629e-05
-0.000321778
0.000548417
-2.11677e-05
-0.000389315
0.00062594
-2.534e-05
-0.000491525
0.00072837
-2.33479e-05
-0.000645973
0.000836132
9.56949e-06
-0.00087418
0.0008688
0.000132388
-0.00116879
0.000631723
0.000406152
-0.00143295
-0.000121449
0.000750033
-0.00134771
-0.00150586
0.000787138
-0.000796829
-0.00276743
0.000313368
-0.00314529
3.36504e-05
-2.31861e-05
0.000245734
-1.94657e-05
-6.00563e-05
0.000433488
-2.6364e-05
-9.46686e-05
0.000479097
-2.64591e-05
-0.000123127
0.000476226
-2.43806e-05
-0.000145871
0.00046344
-2.18068e-05
-0.000164148
0.00045368
-1.92719e-05
-0.000179101
0.000451087
-1.70912e-05
-0.000191947
0.00045819
-1.55107e-05
-0.000204328
0.000477971
-1.46985e-05
-0.000218614
0.000514447
-1.46296e-05
-0.000239043
0.000573352
-1.45662e-05
-0.000272269
0.000660011
-1.06831e-05
-0.000331485
0.000776608
1.02308e-05
-0.000438304
0.000895092
8.77663e-05
-0.000636891
0.000931705
0.000291518
-0.000939082
0.000667694
0.00065817
-0.00123373
-0.00014312
0.00100281
-0.00117698
-0.00164188
0.000820159
-0.00073852
-0.00301294
0.000200181
-0.00381177
-6.25007e-05
-2.97669e-05
0.000285407
-2.52094e-05
-7.28951e-05
0.000491604
-3.30519e-05
-0.000110227
0.000531465
-3.25675e-05
-0.00013812
0.00051803
-2.92796e-05
-0.000156482
0.000494274
-2.55563e-05
-0.000167139
0.000475265
-2.18732e-05
-0.000171499
0.000464837
-1.85528e-05
-0.000170362
0.000464951
-1.578e-05
-0.000164195
0.000478188
-1.36124e-05
-0.000153257
0.000508155
-1.16404e-05
-0.000139131
0.000560895
-8.33847e-06
-0.000124464
0.000640485
1.8669e-06
-0.000120507
0.000750742
3.62221e-05
-0.000150068
0.000860877
0.000137003
-0.000274136
0.000909521
0.000372193
-0.000512969
0.000663683
0.000741798
-0.000766506
-0.000109941
0.000990276
-0.00082406
-0.00157033
0.000641534
-0.000584146
-0.00309028
9.78311e-05
-0.00432145
-0.000207348
-6.33115e-05
0.000360803
-3.54402e-05
-0.000113209
0.000559759
-4.61021e-05
-0.000144911
0.000581534
-4.48658e-05
-0.000161963
0.000552141
-4.01383e-05
-0.000169956
0.000517571
-3.42592e-05
-0.000170871
0.000489464
-2.83007e-05
-0.000164804
0.00046993
-2.28438e-05
-0.000150639
0.000459818
-1.81895e-05
-0.000126866
0.000461256
-1.44169e-05
-9.09579e-05
0.000476509
-1.08826e-05
-4.10251e-05
0.000511303
-6.06434e-06
2.45004e-05
0.000567454
6.10428e-06
0.000101061
0.000649529
4.12193e-05
0.000170943
0.000731553
0.000131348
0.000192789
0.00076851
0.000336213
8.42521e-05
0.000589934
0.000637777
-8.98789e-05
-6.89389e-05
0.000779313
-0.000334168
-0.00129939
0.000456713
-0.000321303
-0.00297038
4.89658e-05
-0.00461901
-0.000312937
-4.37242e-05
0.00041921
-5.36511e-05
-0.000124223
0.000665339
-6.42015e-05
-0.000175328
0.000657057
-5.97557e-05
-0.000200294
0.000599716
-5.0352e-05
-0.000206326
0.000543636
-4.18441e-05
-0.000198413
0.000498742
-3.35926e-05
-0.000179014
0.000464793
-2.62433e-05
-0.000147954
0.000440116
-2.00737e-05
-0.000103938
0.000425747
-1.53645e-05
-4.2863e-05
0.000420692
-1.15753e-05
3.93212e-05
0.000430141
-7.68693e-06
0.000147245
0.000453068
1.07344e-06
0.000283211
0.000494098
2.58752e-05
0.000438919
0.000531625
8.61812e-05
0.00058477
0.00054502
0.000219191
0.000634563
0.000425847
0.000425461
0.000517178
-2.53084e-05
0.000508943
0.000191363
-0.00092884
0.000322928
4.21384e-05
-0.00271443
1.49762e-05
-0.0046236
-0.000382602
-0.000191381
0.000624116
-6.1692e-05
-0.000219984
0.000717039
-8.40197e-05
-0.000238872
0.000701729
-8.55796e-05
-0.000249598
0.000635118
-7.614e-05
-0.000235398
0.000552753
-6.21927e-05
-0.000202263
0.000486605
-4.8245e-05
-0.000154671
0.000435136
-3.63101e-05
-9.27567e-05
0.000392984
-2.69541e-05
-1.78799e-05
0.000362649
-2.06877e-05
7.27583e-05
0.000338175
-1.69362e-05
0.00018114
0.000326397
-1.56131e-05
0.00031399
0.000319648
-1.40217e-05
0.000471574
0.000328189
-4.78565e-06
0.000647539
0.00033328
2.48746e-05
0.000833522
0.000322822
8.62388e-05
0.000962376
0.000244809
0.000207155
0.00100183
-8.38261e-05
0.000237585
0.000829325
-0.000684704
0.000173981
0.00051652
-0.00234554
-9.82798e-06
-0.00423535
-0.000437232
-0.000666834
0.00128579
-0.000165672
-0.000626349
0.000705889
-0.000156832
-0.000483939
0.000590821
-0.000130196
-0.000286015
0.000473088
-0.000107032
-7.90819e-05
0.000381647
-8.94151e-05
0.000126314
0.000314951
-7.34257e-05
0.000323866
0.000268624
-6.03898e-05
0.000513012
0.000231641
-4.99879e-05
0.000694584
0.000205744
-4.23583e-05
0.000870949
0.000183173
-3.77767e-05
0.00104652
0.000169305
-3.65272e-05
0.00122332
0.000157179
-3.77435e-05
0.00141349
0.000149854
-4.07288e-05
0.00160933
0.000141866
-3.33589e-05
0.00182445
0.000111493
-2.29319e-05
0.00201639
5.65845e-05
2.01504e-05
0.00210179
-0.000151825
5.78296e-05
0.00204501
-0.000558906
3.89043e-05
0.00139091
-0.00166229
-2.94925e-05
-0.00305577
-0.000482763
0.00126958
-0.000132878
0.00196968
-0.000154493
0.00256016
-0.000159237
0.00304091
-0.000152801
0.00343734
-0.000142477
0.00377093
-0.00013151
0.00406083
-0.000120036
0.00431505
-0.000110863
0.00454404
-0.000100898
0.00475052
-9.48561e-05
0.00494206
-8.65696e-05
0.005122
-8.57402e-05
0.00529188
-7.78298e-05
0.00545695
-8.24942e-05
0.00558886
-6.89498e-05
0.00567609
-7.88452e-05
0.00555375
-5.60524e-05
0.00503888
-0.000101062
0.00337245
-0.000114412
-0.000534211
-5.40138e-06
5.773e-06
-1.76385e-06
-1.72127e-05
1.26323e-05
-2.09493e-06
-3.12929e-05
1.50475e-05
-2.05169e-06
-4.59415e-05
1.56832e-05
-2.00302e-06
-6.05842e-05
1.5721e-05
-2.07712e-06
-7.50046e-05
1.55507e-05
-2.28728e-06
-8.89901e-05
1.51908e-05
-2.64647e-06
-0.000102217
1.45384e-05
-3.18207e-06
-0.000114211
1.34493e-05
-3.9296e-06
-0.00012433