/*--------------------------------*- C++ -*----------------------------------*\
  =========                 |
  \\      /  F ield         | OpenFOAM: The Open Source CFD Toolbox
   \\    /   O peration     | Website:  https://openfoam.org
    \\  /    A nd           | Version:  10
     \\/     M anipulation  |
\*---------------------------------------------------------------------------*/
FoamFile
{
    format      ascii;
    class       volVectorField;
    location    "4.05";
    object      U;
}
// * * * * * * * * * * * * * * * * * * * * * * * * * * * * * * * * * * * * * //

dimensions      [0 1 -1 0 0 0 0];

internalField   nonuniform List<vector> 
400
(
(-0.000113278 0.000109522 0)
(-0.00083891 0.000326584 0)
(-0.00199741 0.000377849 0)
(-0.00308384 0.000376283 0)
(-0.00413835 0.000361084 0)
(-0.00512547 0.000339185 0)
(-0.00602156 0.000310084 0)
(-0.00680434 0.000272147 0)
(-0.00744881 0.000223784 0)
(-0.00792781 0.000163649 0)
(-0.00821277 9.08834e-05 0)
(-0.00827476 5.73105e-06 0)
(-0.00808653 -9.20009e-05 0)
(-0.00762599 -0.000199318 0)
(-0.0068803 -0.000311558 0)
(-0.00584938 -0.000421783 0)
(-0.00455648 -0.000518981 0)
(-0.00307519 -0.000581901 0)
(-0.00139096 -0.000549745 0)
(-0.000240109 -0.000253855 0)
(-0.000344592 0.00084376 0)
(-0.00175143 0.00169672 0)
(-0.00377795 0.00188055 0)
(-0.00568382 0.0018474 0)
(-0.00751176 0.00174495 0)
(-0.00920094 0.00160267 0)
(-0.0107078 0.00142252 0)
(-0.011994 0.00120185 0)
(-0.0130201 0.000937788 0)
(-0.0137458 0.000628137 0)
(-0.0141305 0.000271942 0)
(-0.0141368 -0.000130267 0)
(-0.0137299 -0.00057123 0)
(-0.0128825 -0.00103892 0)
(-0.0115832 -0.00151465 0)
(-0.00983909 -0.00197097 0)
(-0.00769277 -0.00236548 0)
(-0.00525335 -0.00261539 0)
(-0.00251559 -0.00249701 0)
(-0.000525253 -0.00137085 0)
(-0.000418257 0.00206658 0)
(-0.00205875 0.00376261 0)
(-0.00438595 0.00410665 0)
(-0.00656716 0.0040122 0)
(-0.00865329 0.00376802 0)
(-0.0105769 0.00343407 0)
(-0.01229 0.00301746 0)
(-0.0137509 0.00251628 0)
(-0.0149169 0.00192764 0)
(-0.0157448 0.00124955 0)
(-0.0161922 0.000482268 0)
(-0.0162143 -0.000370505 0)
(-0.0157693 -0.00129586 0)
(-0.0148259 -0.00226978 0)
(-0.0133656 -0.00325461 0)
(-0.0113895 -0.0041952 0)
(-0.00893839 -0.00500738 0)
(-0.00613212 -0.00552533 0)
(-0.00296089 -0.00531162 0)
(-0.000629312 -0.0030963 0)
(-0.000443941 0.00330377 0)
(-0.0021955 0.00587571 0)
(-0.00468032 0.00638035 0)
(-0.00700551 0.0062213 0)
(-0.0092326 0.00583516 0)
(-0.0112922 0.00531194 0)
(-0.0131364 0.00466311 0)
(-0.0147234 0.00388675 0)
(-0.0160097 0.00297893 0)
(-0.0169502 0.00193641 0)
(-0.0174981 0.000758978 0)
(-0.0176045 -0.000546865 0)
(-0.0172163 -0.00196786 0)
(-0.0162858 -0.00347116 0)
(-0.0147779 -0.00500261 0)
(-0.0126768 -0.00647896 0)
(-0.0100108 -0.00776829 0)
(-0.00690664 -0.0086088 0)
(-0.00334872 -0.0083209 0)
(-0.000712686 -0.00493256 0)
(-0.000465801 0.0046184 0)
(-0.00232406 0.00812617 0)
(-0.00496768 0.00880142 0)
(-0.00744145 0.00857663 0)
(-0.00981817 0.00804609 0)
(-0.0120274 0.00733152 0)
(-0.0140226 0.00644884 0)
(-0.0157634 0.00539562 0)
(-0.0172064 0.00416583 0)
(-0.0183047 0.00275305 0)
(-0.0190067 0.00115346 0)
(-0.0192551 -0.000629825 0)
(-0.0189827 -0.00258418 0)
(-0.0181195 -0.00467275 0)
(-0.0166026 -0.00682887 0)
(-0.0143844 -0.0089408 0)
(-0.0114657 -0.0108192 0)
(-0.00797609 -0.01208 0)
(-0.00389516 -0.0117501 0)
(-0.000833872 -0.00703939 0)
(-0.000493862 0.00601532 0)
(-0.00248433 0.0105308 0)
(-0.00532407 0.0113907 0)
(-0.00798213 0.0111006 0)
(-0.0105445 0.0104254 0)
(-0.0129399 0.0095208 0)
(-0.0151247 0.00840758 0)
(-0.0170612 0.00708216 0)
(-0.0187076 0.00553498 0)
(-0.0200166 0.0037538 0)
(-0.0209323 0.00172711 0)
(-0.0213894 -0.000550647 0)
(-0.0213018 -0.00307851 0)
(-0.0205688 -0.00582168 0)
(-0.0190879 -0.00870793 0)
(-0.0167599 -0.0115987 0)
(-0.0135338 -0.0142366 0)
(-0.00952744 -0.016077 0)
(-0.0047104 -0.0157692 0)
(-0.00102364 -0.00953965 0)
(-0.0005298 0.00751437 0)
(-0.00268467 0.013124 0)
(-0.00576569 0.0141847 0)
(-0.00864862 0.0138293 0)
(-0.0114358 0.0130087 0)
(-0.0140558 0.0119165 0)
(-0.0164694 0.0105787 0)
(-0.0186441 0.00899044 0)
(-0.0205426 0.00713705 0)
(-0.02212 0.0049973 0)
(-0.0233178 0.00254611 0)
(-0.0240665 -0.000240962 0)
(-0.024259 -0.00337334 0)
(-0.0237553 -0.00684572 0)
(-0.0223989 -0.010593 0)
(-0.0200113 -0.0144588 0)
(-0.0164478 -0.0181095 0)
(-0.0117757 -0.0207889 0)
(-0.00594073 -0.0206284 0)
(-0.00132923 -0.0126343 0)
(-0.000574052 0.00914017 0)
(-0.00292826 0.0159476 0)
(-0.00629841 0.0172267 0)
(-0.00944652 0.016803 0)
(-0.0124957 0.0158344 0)
(-0.015375 0.0145564 0)
(-0.0180525 0.013002 0)
(-0.0205042 0.0111652 0)
(-0.022702 0.00902581 0)
(-0.0246086 0.00655072 0)
(-0.0261714 0.00369565 0)
(-0.0273092 0.000409006 0)
(-0.0279072 -0.00334998 0)
(-0.0277918 -0.00762315 0)
(-0.0267237 -0.0123817 0)
(-0.0244107 -0.0174787 0)
(-0.0205503 -0.0225091 0)
(-0.0150703 -0.0264488 0)
(-0.00786038 -0.0266807 0)
(-0.00185235 -0.0166519 0)
(-0.000627736 0.010919 0)
(-0.00321987 0.0190464 0)
(-0.00692978 0.0205597 0)
(-0.010382 0.0200598 0)
(-0.0137261 0.0189361 0)
(-0.0168931 0.0174723 0)
(-0.0198616 0.0157107 0)
(-0.0226209 0.013646 0)
(-0.0251578 0.0112526 0)
(-0.0274506 0.0084845 0)
(-0.0294598 0.005274 0)
(-0.0311121 0.00153375 0)
(-0.0322916 -0.0028394 0)
(-0.0327916 -0.00795477 0)
(-0.0322873 -0.0138711 0)
(-0.0303306 -0.0205099 0)
(-0.0263711 -0.0274352 0)
(-0.0200195 -0.0333074 0)
(-0.0110368 -0.0344266 0)
(-0.00283065 -0.0221779 0)
(-0.000693652 0.0128814 0)
(-0.00356895 0.0224692 0)
(-0.00767365 0.0242276 0)
(-0.0114668 0.0236342 0)
(-0.0151327 0.022341 0)
(-0.0186058 0.0206871 0)
(-0.02188 0.0187277 0)
(-0.0249631 0.0164614 0)
(-0.0278643 0.0138597 0)
(-0.030588 0.0108649 0)
(-0.0331229 0.00738416 0)
(-0.0354234 0.00328384 0)
(-0.0373972 -0.00161666 0)
(-0.0388316 -0.00753335 0)
(-0.0393302 -0.0146964 0)
(-0.0382626 -0.0232017 0)
(-0.0347251 -0.0327006 0)
(-0.0277267 -0.0415442 0)
(-0.016727 -0.0445627 0)
(-0.00484678 -0.0303611 0)
(-0.000777826 0.015066 0)
(-0.00399345 0.0262728 0)
(-0.00855502 0.0282753 0)
(-0.0127228 0.027556 0)
(-0.0167282 0.0260666 0)
(-0.0205122 0.0242105 0)
(-0.0240887 0.0220599 0)
(-0.0274902 0.0196218 0)
(-0.0307557 0.01687 0)
(-0.0339276 0.0137412 0)
(-0.0370425 0.0101224 0)
(-0.0401152 0.00583255 0)
(-0.043113 0.000601613 0)
(-0.0458883 -0.00592525 0)
(-0.0480462 -0.0142519 0)
(-0.0488048 -0.02483 0)
(-0.0468464 -0.03766 0)
(-0.0402376 -0.0509478 0)
(-0.0277334 -0.057854 0)
(-0.00936208 -0.0437661 0)
(-0.000892717 0.0175283 0)
(-0.00452648 0.0305269 0)
(-0.00961738 0.0327495 0)
(-0.0141885 0.031848 0)
(-0.0185381 0.0301173 0)
(-0.0226189 0.0280338 0)
(-0.0264705 0.025691 0)
(-0.0301548 0.0231093 0)
(-0.0337468 0.0202735 0)
(-0.0373379 0.0171276 0)
(-0.0410347 0.0135566 0)
(-0.0449493 0.00935505 0)
(-0.0491661 0.00417991 0)
(-0.0537253 -0.00251076 0)
(-0.0584201 -0.0115145 0)
(-0.0625317 -0.0239609 0)
(-0.0644474 -0.0406088 0)
(-0.0610364 -0.0601018 0)
(-0.0495897 -0.0748733 0)
(-0.0196838 -0.0675446 0)
(-0.00106476 0.0203533 0)
(-0.00522948 0.0353203 0)
(-0.010934 0.0376889 0)
(-0.0159264 0.0365126 0)
(-0.0206063 0.0344749 0)
(-0.0249452 0.0321248 0)
(-0.0290154 0.0295763 0)
(-0.0329098 0.0268686 0)
(-0.0367395 0.0240086 0)
(-0.0406468 0.0209662 0)
(-0.0448181 0.0176548 0)
(-0.0494982 0.0138899 0)
(-0.0549988 0.00930797 0)
(-0.0616683 0.00322653 0)
(-0.0698909 -0.0054697 0)
(-0.0795716 -0.018502 0)
(-0.0891953 -0.0381871 0)
(-0.0942837 -0.0654985 0)
(-0.0876484 -0.0957251 0)
(-0.0374294 -0.112218 0)
(-0.00134992 0.0236741 0)
(-0.00623302 0.0408468 0)
(-0.0126372 0.0432683 0)
(-0.01803 0.0416943 0)
(-0.0229922 0.0392065 0)
(-0.0275239 0.0364733 0)
(-0.0317287 0.0336518 0)
(-0.0357241 0.030802 0)
(-0.0396502 0.0279542 0)
(-0.0436923 0.0251232 0)
(-0.0481121 0.0223054 0)
(-0.0533019 0.0194394 0)
(-0.0598603 0.0163076 0)
(-0.0686622 0.0123425 0)
(-0.0808793 0.00632277 0)
(-0.0979627 -0.00414451 0)
(-0.119285 -0.0240689 0)
(-0.136609 -0.0622732 0)
(-0.133256 -0.12417 0)
(-0.0494296 -0.192926 0)
(-0.00175992 0.0279061 0)
(-0.0074784 0.0465378 0)
(-0.0148031 0.0485426 0)
(-0.0206493 0.0462391 0)
(-0.0258882 0.043361 0)
(-0.0305026 0.0404294 0)
(-0.0346843 0.0375108 0)
(-0.0386005 0.0346333 0)
(-0.0424024 0.031854 0)
(-0.0462642 0.0292615 0)
(-0.050447 0.0269881 0)
(-0.0554088 0.0251934 0)
(-0.0619768 0.0240308 0)
(-0.0715649 0.0234341 0)
(-0.086523 0.0226632 0)
(-0.109985 0.0182701 0)
(-0.141429 0.000399245 0)
(-0.163432 -0.0579678 0)
(-0.154922 -0.176271 0)
(-0.0379744 -0.306563 0)
(-0.00369726 0.0318174 0)
(-0.0113938 0.0558242 0)
(-0.0183575 0.0574676 0)
(-0.023987 0.0546724 0)
(-0.0289003 0.0506362 0)
(-0.0333949 0.0465708 0)
(-0.0375097 0.0427271 0)
(-0.0413146 0.0392023 0)
(-0.0448811 0.0360809 0)
(-0.0483185 0.0334891 0)
(-0.051816 0.0316905 0)
(-0.0557308 0.0311459 0)
(-0.0608075 0.0326381 0)
(-0.0683975 0.0369497 0)
(-0.0811087 0.0441941 0)
(-0.10131 0.0478632 0)
(-0.129965 0.0310841 0)
(-0.143295 -0.0584575 0)
(-0.134872 -0.241026 0)
(-0.0209212 -0.410021 0)
(-0.00144475 0.0458894 0)
(-0.00957039 0.0586886 0)
(-0.0215585 0.0580344 0)
(-0.0278532 0.0533248 0)
(-0.0337861 0.0496647 0)
(-0.0381392 0.0463706 0)
(-0.0415915 0.043298 0)
(-0.0443994 0.0403502 0)
(-0.0467067 0.0376252 0)
(-0.0485577 0.0352619 0)
(-0.0499461 0.0336978 0)
(-0.0508211 0.0335308 0)
(-0.0513748 0.0361793 0)
(-0.0516126 0.0425881 0)
(-0.0537906 0.0542131 0)
(-0.0555736 0.059989 0)
(-0.0707853 0.0426585 0)
(-0.0711279 -0.0636167 0)
(-0.0807735 -0.284755 0)
(-0.00451848 -0.482877 0)
(-0.0114853 0.0359037 0)
(-0.0255378 0.081778 0)
(-0.0265506 0.0789469 0)
(-0.0342278 0.0733245 0)
(-0.0376527 0.0658034 0)
(-0.0395634 0.0588857 0)
(-0.039967 0.0527815 0)
(-0.0393887 0.0474277 0)
(-0.0380993 0.0428146 0)
(-0.0360882 0.0388886 0)
(-0.0335588 0.0358954 0)
(-0.0298677 0.0344035 0)
(-0.0254306 0.0358811 0)
(-0.0171067 0.0410198 0)
(-0.00922078 0.0534494 0)
(0.0128529 0.0612342 0)
(0.0213464 0.0515938 0)
(0.0559141 -0.0458149 0)
(0.0159342 -0.285709 0)
(0.0426054 -0.504297 0)
(-0.0756014 0.0991995 0)
(-0.06071 0.0624355 0)
(-0.062025 0.0611889 0)
(-0.0417119 0.0543457 0)
(-0.0249046 0.0472426 0)
(-0.00627536 0.0416912 0)
(0.0110986 0.0374105 0)
(0.0277565 0.0335574 0)
(0.0427133 0.0304448 0)
(0.0573249 0.0272621 0)
(0.0699349 0.0250623 0)
(0.0836918 0.0228406 0)
(0.0941687 0.0225126 0)
(0.114017 0.0227438 0)
(0.121377 0.0233772 0)
(0.167859 0.0218611 0)
(0.169396 -0.00610182 0)
(0.227847 -0.0668968 0)
(0.164834 -0.259422 0)
(0.128357 -0.444774 0)
(0.120344 0.140201 0)
(0.153695 0.086461 0)
(0.232673 0.0642911 0)
(0.288092 0.0491767 0)
(0.331175 0.0386612 0)
(0.369485 0.0309498 0)
(0.399778 0.0255618 0)
(0.430621 0.0215547 0)
(0.451215 0.0182374 0)
(0.47882 0.0161743 0)
(0.490647 0.0135106 0)
(0.518874 0.0125519 0)
(0.521003 0.0106101 0)
(0.554601 0.00987121 0)
(0.545021 0.00920301 0)
(0.584337 0.00470002 0)
(0.555355 -0.00275464 0)
(0.571461 -0.0284971 0)
(0.439504 -0.0827584 0)
(0.277818 -0.157505 0)
)
;

boundaryField
{
    movingWall
    {
        type            fixedValue;
        value           uniform (1 0 0);
    }
    fixedWalls
    {
        type            noSlip;
    }
    frontAndBack
    {
        type            empty;
    }
}


// ************************************************************************* //
