/*--------------------------------*- C++ -*----------------------------------*\
  =========                 |
  \\      /  F ield         | OpenFOAM: The Open Source CFD Toolbox
   \\    /   O peration     | Website:  https://openfoam.org
    \\  /    A nd           | Version:  10
     \\/     M anipulation  |
\*---------------------------------------------------------------------------*/
FoamFile
{
    format      ascii;
    class       surfaceScalarField;
    location    "2.925";
    object      phi;
}
// * * * * * * * * * * * * * * * * * * * * * * * * * * * * * * * * * * * * * //

dimensions      [0 3 -1 0 0 0 0];

internalField   nonuniform List<scalar> 
928
(
0.097889
0.00211099
0.103015
-0.00512592
0.107478
-0.00446315
-0.00887783
0.116356
0.0962647
0.00584632
0.106423
-0.015284
0.105379
-0.00341918
-0.0180058
0.114507
0.0954733
0.010373
0.110194
-0.0300046
0.106177
0.000597864
-0.0380112
0.126182
0.0998839
0.0104891
0.0919902
-0.022111
0.0935395
-0.000951422
0.145343
-0.0898147
0.111153
0.00520328
-0.0164676
0.12762
0.111831
0.00787856
-0.0412825
0.136646
0.131318
0.002743
-0.0465557
0.136591
0.148086
0.10153
0.127035
0.000585382
0.127277
-0.000242339
0.128546
-0.00126893
-0.00145441
0.130001
0.137661
-0.000429442
0.136991
0.000427885
0.137043
-0.00132067
-0.00311848
0.138707
0.139712
-0.00355062
0.142794
-0.00265444
0.146081
-0.00460677
-0.000371158
0.143333
0.103912
-0.00593182
0.0808946
0.0203625
0.0855573
-0.00926945
0.0815557
0.00363039
0.131281
-0.00128028
0.131399
-0.000117985
0.129573
0.00182618
0.127821
0.00175188
0.126566
0.00125443
0.125928
0.000638785
0.125065
0.000862702
0.124829
0.000235726
0.123921
0.000908023
0.123696
0.000225449
0.123013
0.00068289
0.122449
0.000563895
0.121698
0.000751223
0.120247
0.00145051
0.119578
0.000669011
0.118203
0.00137528
0.118181
2.20195e-05
0.116719
0.00146186
0.115969
0.000750151
0.11357
0.00239831
0.111438
0.00213282
0.108985
0.00245255
0.106827
0.00215848
0.105877
0.000949381
0.104694
0.00118316
0.105894
-0.00119952
0.106386
-0.000492272
0.109048
-0.00266187
0.11033
-0.00128278
0.111876
-0.00154549
0.112049
-0.00017277
0.110603
0.00144591
0.108276
0.00232645
0.103503
0.00477332
0.100052
0.00345077
0.0955455
0.00450681
0.0937101
0.00183537
0.0926652
0.00104496
0.0939055
-0.00124032
-0.00291571
0.139205
-0.00177854
0.13791
0.00117699
0.136905
0.00283141
0.13643
0.00222633
0.135225
0.00245971
0.134448
0.00141632
0.133926
0.00138453
0.134076
8.5219e-05
0.133509
0.00147553
0.133513
0.000221253
0.133509
0.000686441
0.133163
0.000909852
0.132695
0.00121968
0.131591
0.00255462
0.131447
0.000813022
0.130652
0.00217045
0.130833
-0.000159774
0.129636
0.00265921
0.128703
0.00168369
0.12667
0.00443094
0.124954
0.00384869
0.122725
0.00468176
0.120038
0.00484511
0.118869
0.0021185
0.117588
0.00246449
0.118321
-0.00193321
0.119141
-0.00131144
0.121395
-0.00491662
0.123386
-0.00327337
0.125299
-0.00345853
0.127188
-0.00206157
0.126525
0.00210827
0.126217
0.0026353
0.123471
0.00751911
0.121478
0.0054441
0.117687
0.00829769
0.114163
0.00535901
0.111666
0.0035416
0.110246
0.000180228
-0.00468374
0.139643
0.00191154
0.139151
0.00166947
0.138846
0.00313615
0.138327
0.00274552
0.137501
0.00328547
0.137239
0.00167877
0.137056
0.00156752
0.136036
0.00110528
0.13674
0.000771361
0.137819
-0.000858155
0.138369
0.000136668
0.138509
0.000769635
0.137986
0.00174236
0.137941
0.00260016
0.137709
0.00104486
0.137786
0.00209338
0.137295
0.00033182
0.136329
0.00362461
0.13474
0.00327265
0.132663
0.00650859
0.12963
0.006881
0.126725
0.00758739
0.124081
0.00748844
0.121627
0.00457251
0.120054
0.00403791
0.118935
-0.000814637
0.117891
-0.000267657
0.118549
-0.00557399
0.119636
-0.00436032
0.122165
-0.00598782
0.124754
-0.00465015
0.127427
-0.000565393
0.129306
0.000756575
0.128576
0.00824893
0.12573
0.00829052
0.121078
0.0129493
0.116577
0.00986028
0.113721
0.00639761
0.110524
0.00337687
-0.00354845
0.0792869
0.00418038
0.0812929
-0.000336536
0.0829561
0.00147296
0.0756236
0.0100781
0.0751071
0.00380194
0.0785928
-0.00180691
0.0804335
-0.000273226
0.0828889
-0.00135014
0.0895628
-0.0059025
0.0936985
-0.0049938
0.0978611
-0.00402602
0.101634
-0.0030032
0.105115
-0.00173892
0.108254
-0.000538722
0.109829
-0.000529742
0.111976
-5.37867e-05
0.112662
-0.000354281
0.114624
0.00166305
0.115684
0.00221182
0.118434
0.0037587
0.119333
0.00598255
0.119349
0.0075716
0.117193
0.00964349
0.11224
0.00952609
0.106258
0.0100198
0.0981834
0.00725999
0.0933937
0.00452199
0.08744
0.000379797
0.0876004
-0.00452081
0.0888862
-0.00727356
0.0932205
-0.00898445
0.0998929
-0.00723782
0.105982
-0.00533226
0.113661
0.000569617
0.118488
0.00346345
0.123732
0.00770528
0.125736
0.00785669
0.122246
0.0098873
0.115017
0.0106055
0.00218532
0.111248
-0.000759287
0.0890837
5.36857e-05
0.0898983
-0.001766
8.36787e-05
0.108659
-0.00941852
0.0874075
0.0213054
0.0851377
0.000503836
0.0852213
-0.00789447
0.00196266
-0.0330624
0.0455304
-0.0217033
-0.0206285
-0.0274459
0.00937304
-0.00816916
0.0101318
0.0236136
0.0137476
0.0089919
-0.00600687
-0.00796303
-0.010491
-0.0197784
0.0333318
-0.0222008
0.00208586
-0.000803753
-0.0199241
-0.00467922
0.0139535
-0.00605569
0.00517841
0.00432476
-0.0121874
0.0112836
-0.00723211
0.0127936
-0.00286014
0.0127514
-0.0058603
0.0181347
-0.010377
0.022142
-0.00803339
0.0229589
-0.00382006
0.0228547
-0.00163471
0.0232518
-0.000935821
0.0242087
-0.00148668
0.0260201
-0.00186516
0.0280976
-0.00243185
0.0308507
-0.00108997
0.0333456
-0.000283144
0.0354888
0.00161551
0.0370968
0.00437458
0.0377526
0.00691581
0.037004
0.0103921
0.0353871
0.011143
0.0349361
0.0104707
0.0348158
0.00738036
0.0358463
0.00349147
0.0386902
-0.00246415
0.0411665
-0.00699711
0.0455855
-0.0116925
0.0505408
-0.0139397
0.056421
-0.0131181
0.0611214
-0.0100326
0.0644959
-0.00280486
0.0671706
0.000788706
0.0657186
0.00915725
0.0630875
0.0104878
0.0599892
0.0129856
0.0573386
0.0132562
0.00222517
0.00988062
0.0154881
0.0141161
-0.00214966
0.00352101
-0.00932893
0.0137442
0.00373034
0.0240977
-0.00517511
0.0221177
-0.0102074
0.0221498
-0.00726422
0.026244
-0.00695432
0.0265385
-0.00615474
0.0215263
-0.0053648
0.0160902
-0.00259735
0.0131292
-0.000859047
0.0119422
-0.000447709
0.0118396
-0.000833253
0.0114468
-0.00109381
0.0107988
-0.00121719
0.0109685
-0.00260158
0.0127319
-0.00285331
0.0152715
-0.00282283
0.0178329
-0.00094589
0.0213719
0.00083561
0.0251297
0.00315807
0.0294459
0.00607587
0.0348279
0.00576096
0.0395335
0.00576516
0.0439761
0.00293769
0.0473775
9.00713e-05
0.0495657
-0.00465234
0.0491342
-0.00656562
0.0471569
-0.00971522
0.0453928
-0.0121756
0.043736
-0.0114613
0.043538
-0.00983455
0.0444488
-0.00371569
0.0457504
-0.000512947
0.0490686
0.00583912
0.0516282
0.00792813
0.0557783
0.00883551
0.0610158
0.00801865
0.000879385
0.101736
-0.0111548
0.0955381
0.0275035
0.0975088
-0.00146684
0.0366991
0.146031
0.0958081
-0.0069629
0.107797
0.015515
0.104226
0.00210425
0.0175889
0.123336
0.0959641
-0.00292697
0.105759
0.00572005
0.103715
0.0041487
0.00895611
0.112347
0.097073
0.102793
0.106942
0.115898
0.151949
-0.00591812
0.0452756
0.106674
0.125676
-0.00825851
0.0420964
0.128855
0.109199
-0.00511033
0.0169349
0.134361
0.110788
0.127722
0.109974
0.00683127
0.114081
0.0096406
0.110188
-0.00211368
-0.00306331
0.10276
0.134782
0.00090455
0.141908
0.00251491
0.136801
0.0029929
0.00104145
0.132696
0.134509
0.000756017
0.135832
0.0011922
0.137016
0.00180927
0.00131004
0.136747
0.128478
0.129671
0.13148
0.13279
0.113366
0.00488207
0.112161
-0.000943958
0.109094
-0.00626174
0.117767
-0.00494268
0.118802
-0.00621068
0.117926
-0.00933153
0.118626
-0.00796372
0.117467
-0.00579539
0.113822
-0.00251026
0.109121
-0.000663089
0.104223
0.00230039
0.0992888
0.00407499
0.093944
0.00489716
0.0891773
0.00393342
0.0857739
0.00230954
0.0826378
0.00191896
0.0799239
0.000112345
0.0766539
0.000416672
0.0746826
-0.00085158
0.0737796
-4.28368e-05
0.0749115
-0.000296329
0.0773895
0.000680118
0.0821644
0.00130094
0.0882339
-0.000308569
0.0949007
-0.000901554
0.102826
-0.00498764
0.109058
-0.00614152
0.114093
-0.00968729
0.116518
-0.00899153
0.114701
-0.00789791
0.10764
-0.00511463
0.0982218
-0.00204294
0.088812
-0.00042482
0.0807121
0.00438425
0.0775465
0.0026526
0.0773098
0.00607586
0.0817332
0.00350475
0.0870068
0.00356195
0.094924
0.000101462
-0.00442903
0.136778
0.000800297
0.135753
8.09729e-05
0.132263
-0.0027714
0.132109
-0.00478862
0.130673
-0.00477477
0.126731
-0.00538995
0.123291
-0.00452368
0.122022
-0.00452599
0.12118
-0.00166807
0.120616
-9.97335e-05
0.120762
0.00215433
0.12196
0.00287725
0.123499
0.00335829
0.124347
0.00308507
0.125051
0.00160549
0.125316
0.00165448
0.125912
-0.000484243
0.125923
0.000405711
0.126617
-0.00154506
0.126432
0.000142005
0.127091
-0.000955177
0.128184
-0.000412976
0.130056
-0.000570869
0.132674
-0.00292684
0.134511
-0.00273844
0.136222
-0.00669866
0.135446
-0.00536505
0.133697
-0.00793862
0.130968
-0.00626244
0.128602
-0.00553221
0.12683
-0.00334266
0.123936
0.000851469
0.121876
0.00163531
0.120219
0.00604093
0.118813
0.00405878
0.119436
0.00545219
0.120733
0.00220775
0.123287
0.00100874
0.125576
-0.00218839
-0.0050566
0.137052
0.000495341
0.137169
-3.56028e-05
0.135849
-0.00145168
0.13356
-0.00249955
0.131742
-0.00295675
0.129179
-0.00282759
0.126729
-0.00207364
0.124106
-0.00190301
0.123484
-0.00104536
0.123971
-0.000587085
0.124841
0.00128401
0.126432
0.00128624
0.128397
0.00139358
0.130551
0.000931206
0.131755
0.000401374
0.132883
0.000526982
0.132778
-0.00037956
0.133263
-7.95362e-05
0.13278
-0.00106189
0.133218
-0.000296463
0.133054
-0.000790636
0.133316
-0.000675246
0.133567
-0.000821257
0.132582
-0.00194247
0.131566
-0.00172204
0.128616
-0.00374859
0.126249
-0.00299869
0.12283
-0.00451898
0.1196
-0.00303282
0.116787
-0.00271863
0.114779
-0.0013356
0.114702
0.000928585
0.115172
0.00116544
0.118002
0.0032108
0.11971
0.00235133
0.122533
0.00262938
0.124057
0.000683093
0.125197
-0.000131439
0.125677
-0.00266817
-0.00330523
0.133285
0.13325
0.131798
0.129298
0.126342
0.123514
0.12144
0.119537
0.118492
0.117905
0.119189
0.120475
0.121869
0.1228
0.123201
0.123728
0.123349
0.123269
0.122207
0.121911
0.12112
0.120445
0.119624
0.117681
0.115959
0.112211
0.109212
0.104693
0.10166
0.0989416
0.097606
0.0985346
0.0997
0.102911
0.105262
0.107892
0.108575
0.108443
0.105775
)
;

boundaryField
{
    inlet
    {
        type            calculated;
        value           nonuniform List<scalar> 10(-0.1 -0.1 -0.1 -0.1 -0.1 -0.1 -0.1 -0.1 -0.1 -0.1);
    }
    outlet
    {
        type            calculated;
        value           nonuniform List<scalar> 10(0.0968212 0.112014 0.109389 0.109284 0.0572988 0.0623616 0.100232 0.126204 0.123926 0.10247);
    }
    obstacle
    {
        type            calculated;
        value           uniform 0;
    }
    upperWall
    {
        type            calculated;
        value           uniform 0;
    }
    lowerWall
    {
        type            calculated;
        value           uniform 0;
    }
    frontAndBack
    {
        type            empty;
        value           nonuniform List<scalar> 0();
    }
}


// ************************************************************************* //
