/*--------------------------------*- C++ -*----------------------------------*\
  =========                 |
  \\      /  F ield         | OpenFOAM: The Open Source CFD Toolbox
   \\    /   O peration     | Website:  https://openfoam.org
    \\  /    A nd           | Version:  10
     \\/     M anipulation  |
\*---------------------------------------------------------------------------*/
FoamFile
{
    format      ascii;
    class       volVectorField;
    location    "7.95";
    object      U;
}
// * * * * * * * * * * * * * * * * * * * * * * * * * * * * * * * * * * * * * //

dimensions      [0 1 -1 0 0 0 0];

internalField   nonuniform List<vector> 
400
(
(-0.000147252 0.0001319 0)
(-0.00110429 0.000412743 0)
(-0.00272131 0.000514772 0)
(-0.00437429 0.00054682 0)
(-0.00607591 0.000561609 0)
(-0.00778686 0.000575695 0)
(-0.00949062 0.000588263 0)
(-0.0111632 0.0005925 0)
(-0.0127615 0.000579136 0)
(-0.0142193 0.000536851 0)
(-0.0154438 0.000452611 0)
(-0.0163122 0.000313145 0)
(-0.0166757 0.000108608 0)
(-0.0163679 -0.000171183 0)
(-0.0152327 -0.000513496 0)
(-0.0131713 -0.000882404 0)
(-0.0102178 -0.0012038 0)
(-0.00667606 -0.00136324 0)
(-0.00277707 -0.00120964 0)
(-0.000367125 -0.000474524 0)
(-0.000471676 0.00112345 0)
(-0.00246786 0.00234099 0)
(-0.00552422 0.00278942 0)
(-0.00864182 0.00292408 0)
(-0.0118126 0.00295237 0)
(-0.01495 0.00294165 0)
(-0.0180027 0.00289339 0)
(-0.0209129 0.00278449 0)
(-0.0235978 0.00258132 0)
(-0.0259435 0.0022432 0)
(-0.0278 0.00172517 0)
(-0.0289786 0.000982534 0)
(-0.029267 -2.07373e-05 0)
(-0.0284298 -0.00128575 0)
(-0.0262489 -0.00275283 0)
(-0.022602 -0.00427134 0)
(-0.0175678 -0.00555608 0)
(-0.0116107 -0.00616818 0)
(-0.00511084 -0.00553783 0)
(-0.000865775 -0.00263354 0)
(-0.000613849 0.00289699 0)
(-0.00309086 0.00547307 0)
(-0.0068095 0.00640947 0)
(-0.0105739 0.00667037 0)
(-0.0143779 0.00668087 0)
(-0.0181187 0.00657972 0)
(-0.0217361 0.00637555 0)
(-0.0251657 0.00602785 0)
(-0.0283173 0.00547425 0)
(-0.0310684 0.00463811 0)
(-0.033258 0.00343472 0)
(-0.0346835 0.00178173 0)
(-0.0350942 -0.000382208 0)
(-0.0341999 -0.00306121 0)
(-0.0317192 -0.00614012 0)
(-0.027451 -0.00932026 0)
(-0.0214236 -0.0120238 0)
(-0.0141698 -0.013323 0)
(-0.00614577 -0.0120279 0)
(-0.00097824 -0.00601329 0)
(-0.000659787 0.00478847 0)
(-0.00333828 0.00882 0)
(-0.00735236 0.0102556 0)
(-0.0114007 0.0106305 0)
(-0.0154913 0.0106122 0)
(-0.019523 0.0104162 0)
(-0.0234442 0.0100596 0)
(-0.0272013 0.00948586 0)
(-0.0307166 0.00860461 0)
(-0.033878 0.00730083 0)
(-0.036527 0.00544196 0)
(-0.0384479 0.0028939 0)
(-0.0393633 -0.000450708 0)
(-0.0389044 -0.00462711 0)
(-0.0366468 -0.00951372 0)
(-0.0322073 -0.0146759 0)
(-0.0254285 -0.019193 0)
(-0.0168615 -0.0214752 0)
(-0.00704043 -0.0194352 0)
(-0.000924112 -0.00958501 0)
(-0.000664487 0.00676338 0)
(-0.00342372 0.0123354 0)
(-0.00758275 0.0142963 0)
(-0.0117796 0.0147961 0)
(-0.016039 0.0147645 0)
(-0.0202707 0.0145008 0)
(-0.0244426 0.0140342 0)
(-0.0285251 0.0132946 0)
(-0.0324669 0.012164 0)
(-0.0361821 0.0104855 0)
(-0.0395298 0.00806588 0)
(-0.0422914 0.00468952 0)
(-0.044141 0.000154429 0)
(-0.0446171 -0.0056529 0)
(-0.0430974 -0.0126815 0)
(-0.0388717 -0.0204063 0)
(-0.0313991 -0.0275037 0)
(-0.0210578 -0.0314246 0)
(-0.00836261 -0.0285604 0)
(-0.000740453 -0.01357 0)
(-0.000654073 0.00876027 0)
(-0.00344911 0.0159366 0)
(-0.00769972 0.0184521 0)
(-0.0120014 0.0190978 0)
(-0.0163949 0.0190846 0)
(-0.0208066 0.0188047 0)
(-0.025232 0.0183057 0)
(-0.0296762 0.0175094 0)
(-0.0341299 0.0162731 0)
(-0.0385537 0.014396 0)
(-0.0428511 0.0116127 0)
(-0.0468251 0.00759543 0)
(-0.0501245 0.00198902 0)
(-0.0522059 -0.0055138 0)
(-0.0522085 -0.0150625 0)
(-0.0489446 -0.0261754 0)
(-0.0411487 -0.0371602 0)
(-0.028456 -0.0441299 0)
(-0.0108829 -0.0405168 0)
(-0.000417154 -0.0181879 0)
(-0.000636823 0.0107542 0)
(-0.00345063 0.0195899 0)
(-0.00777314 0.0226904 0)
(-0.0121602 0.0235069 0)
(-0.0166683 0.0235503 0)
(-0.021243 0.0233181 0)
(-0.0259143 0.0228863 0)
(-0.0307333 0.022178 0)
(-0.0357499 0.0210353 0)
(-0.0409993 0.0192186 0)
(-0.0464707 0.0163857 0)
(-0.0520489 0.0120723 0)
(-0.0574339 0.00569179 0)
(-0.062097 -0.00339486 0)
(-0.0649961 -0.0156434 0)
(-0.0643719 -0.0310677 0)
(-0.0576881 -0.048003 0)
(-0.0423347 -0.0610641 0)
(-0.0166712 -0.057479 0)
(-0.000186751 -0.0242696 0)
(-0.000614106 0.0127346 0)
(-0.00343717 0.023283 0)
(-0.00781891 0.0269969 0)
(-0.0122695 0.0280044 0)
(-0.0168599 0.0281386 0)
(-0.0215559 0.0280175 0)
(-0.0264256 0.0277592 0)
(-0.0315762 0.0273049 0)
(-0.037136 0.0265015 0)
(-0.0432481 0.0250922 0)
(-0.0500481 0.0226768 0)
(-0.0576126 0.0186603 0)
(-0.0658649 0.0122062 0)
(-0.0744234 0.00225478 0)
(-0.0824769 -0.0123322 0)
(-0.087849 -0.0326958 0)
(-0.0855354 -0.0587239 0)
(-0.0675773 -0.0840591 0)
(-0.0301994 -0.0835996 0)
(-0.00120312 -0.0342761 0)
(-0.00058681 0.0146929 0)
(-0.0034132 0.0270066 0)
(-0.00784152 0.0313533 0)
(-0.0123231 0.0325576 0)
(-0.0169417 0.0328008 0)
(-0.0216809 0.0328395 0)
(-0.026647 0.0328512 0)
(-0.0320063 0.0328178 0)
(-0.0379787 0.0326235 0)
(-0.0448467 0.0320408 0)
(-0.0529567 0.0306738 0)
(-0.0627023 0.0278752 0)
(-0.0744847 0.0226554 0)
(-0.0886595 0.0135726 0)
(-0.105146 -0.00165597 0)
(-0.121229 -0.0268643 0)
(-0.12699 -0.0669056 0)
(-0.105575 -0.11506 0)
(-0.0567918 -0.125146 0)
(-0.00667258 -0.0540399 0)
(-0.000558775 0.0166245 0)
(-0.00339127 0.0307541 0)
(-0.00785685 0.0357355 0)
(-0.0123267 0.0371167 0)
(-0.0168962 0.0374573 0)
(-0.021561 0.0376726 0)
(-0.0264594 0.0380186 0)
(-0.0318115 0.0385454 0)
(-0.0379237 0.0392173 0)
(-0.0452258 0.0399071 0)
(-0.0543203 0.040341 0)
(-0.0660488 0.0400164 0)
(-0.0815934 0.0380991 0)
(-0.102558 0.0330219 0)
(-0.129916 0.0205602 0)
(-0.158919 -0.00967 0)
(-0.171295 -0.0721175 0)
(-0.145721 -0.155296 0)
(-0.0963594 -0.183952 0)
(-0.021606 -0.0936145 0)
(-0.000539486 0.0185377 0)
(-0.00340089 0.034529 0)
(-0.00790717 0.0401153 0)
(-0.0123175 0.041613 0)
(-0.0167416 0.0419939 0)
(-0.0211786 0.0423505 0)
(-0.0257853 0.0430333 0)
(-0.0308146 0.0441849 0)
(-0.03663 0.0458963 0)
(-0.0437703 0.0482256 0)
(-0.0530498 0.0511831 0)
(-0.065707 0.054701 0)
(-0.0836359 0.0584584 0)
(-0.109605 0.0606142 0)
(-0.144707 0.0527253 0)
(-0.180162 0.0140446 0)
(-0.192036 -0.0780958 0)
(-0.168025 -0.197955 0)
(-0.132614 -0.251195 0)
(-0.04209 -0.168143 0)
(-0.000549134 0.0204709 0)
(-0.00350225 0.038375 0)
(-0.00807873 0.0445026 0)
(-0.0123824 0.0460066 0)
(-0.016553 0.0463063 0)
(-0.0205855 0.0466922 0)
(-0.0246376 0.0476196 0)
(-0.0289588 0.0493365 0)
(-0.0339073 0.0520942 0)
(-0.0400264 0.0562108 0)
(-0.0481658 0.0621241 0)
(-0.0596407 0.0703964 0)
(-0.0763142 0.0811609 0)
(-0.100655 0.0910537 0)
(-0.132411 0.085626 0)
(-0.161838 0.0356632 0)
(-0.169248 -0.0797542 0)
(-0.153756 -0.225937 0)
(-0.137685 -0.316718 0)
(-0.0498971 -0.276699 0)
(-0.000618399 0.0224765 0)
(-0.00377629 0.0422662 0)
(-0.00849502 0.0487391 0)
(-0.0126685 0.0500501 0)
(-0.0164887 0.0501053 0)
(-0.0199352 0.050365 0)
(-0.0231573 0.0513553 0)
(-0.0263583 0.0534158 0)
(-0.0298 0.0569383 0)
(-0.0338681 0.0624733 0)
(-0.0391494 0.0708282 0)
(-0.046467 0.0829799 0)
(-0.0567686 0.0990535 0)
(-0.0710344 0.113501 0)
(-0.0888144 0.107949 0)
(-0.103609 0.0500126 0)
(-0.107676 -0.0744312 0)
(-0.102653 -0.232805 0)
(-0.110149 -0.359916 0)
(-0.0408146 -0.372154 0)
(-0.000846791 0.0248635 0)
(-0.00448789 0.0467954 0)
(-0.00944708 0.0535471 0)
(-0.0133866 0.0544686 0)
(-0.0167043 0.053934 0)
(-0.0194068 0.0536614 0)
(-0.0216011 0.0542745 0)
(-0.0233945 0.0561781 0)
(-0.024897 0.0598333 0)
(-0.0262271 0.065887 0)
(-0.0275397 0.0752742 0)
(-0.0288154 0.0889132 0)
(-0.0300132 0.106764 0)
(-0.0306049 0.12188 0)
(-0.0317727 0.116212 0)
(-0.0306787 0.0565332 0)
(-0.0341208 -0.0648216 0)
(-0.0388145 -0.218249 0)
(-0.0740403 -0.36902 0)
(-0.0258985 -0.433549 0)
(-0.00119732 0.0277878 0)
(-0.00534572 0.0506215 0)
(-0.0108559 0.0566733 0)
(-0.0147944 0.0565264 0)
(-0.0177578 0.0553304 0)
(-0.0196534 0.0546585 0)
(-0.0206516 0.0549747 0)
(-0.0208227 0.0565668 0)
(-0.0201398 0.0598406 0)
(-0.0184467 0.0653849 0)
(-0.0155482 0.0740395 0)
(-0.0105668 0.0863018 0)
(-0.00319327 0.102014 0)
(0.00882015 0.114796 0)
(0.0209685 0.109121 0)
(0.0340858 0.0548728 0)
(0.0271946 -0.0543546 0)
(0.0143922 -0.188443 0)
(-0.0468233 -0.356841 0)
(-0.011614 -0.474508 0)
(-0.00327681 0.0302867 0)
(-0.00978022 0.05816 0)
(-0.0146322 0.0641239 0)
(-0.0175464 0.0633891 0)
(-0.0191883 0.0605263 0)
(-0.0199169 0.0581227 0)
(-0.0197432 0.0567674 0)
(-0.0185343 0.0567591 0)
(-0.0160341 0.0584031 0)
(-0.0118024 0.0620888 0)
(-0.00550984 0.0683985 0)
(0.00421925 0.0775041 0)
(0.0176612 0.0889111 0)
(0.0369747 0.0977205 0)
(0.0557225 0.0924827 0)
(0.0753586 0.0501577 0)
(0.0673619 -0.0387527 0)
(0.0529281 -0.148724 0)
(-0.0258626 -0.333281 0)
(0.00292622 -0.497199 0)
(-0.00100251 0.043875 0)
(-0.00795812 0.059939 0)
(-0.017825 0.0617919 0)
(-0.020854 0.0577096 0)
(-0.0229523 0.0546025 0)
(-0.0229816 0.0525431 0)
(-0.0216686 0.0514229 0)
(-0.0189141 0.0511494 0)
(-0.0145267 0.0518804 0)
(-0.00800313 0.0538043 0)
(0.00105407 0.0573814 0)
(0.01404 0.0627064 0)
(0.0306577 0.0691464 0)
(0.0536168 0.0733343 0)
(0.074066 0.068355 0)
(0.0978086 0.0393273 0)
(0.0876021 -0.0247824 0)
(0.0738303 -0.10818 0)
(-0.00617707 -0.306679 0)
(0.0224529 -0.50528 0)
(-0.0125448 0.0323176 0)
(-0.0235289 0.0801743 0)
(-0.0219501 0.0799106 0)
(-0.0268604 0.0748794 0)
(-0.0273901 0.0674999 0)
(-0.0261161 0.061394 0)
(-0.0227913 0.0564876 0)
(-0.017627 0.0527086 0)
(-0.0106685 0.0500676 0)
(-0.00151682 0.0483936 0)
(0.00982097 0.0479784 0)
(0.024558 0.0486162 0)
(0.0415211 0.0506436 0)
(0.0642107 0.0514133 0)
(0.08137 0.0492244 0)
(0.106312 0.0341718 0)
(0.0978889 -0.00410278 0)
(0.106058 -0.0680057 0)
(0.041399 -0.276506 0)
(0.0587076 -0.492285 0)
(-0.0775952 0.0960482 0)
(-0.0632608 0.0588681 0)
(-0.0654907 0.0599172 0)
(-0.0433151 0.0532665 0)
(-0.0258136 0.046316 0)
(-0.00546515 0.0411593 0)
(0.0137393 0.0374021 0)
(0.0332858 0.0342039 0)
(0.0514037 0.0318907 0)
(0.0710474 0.0297632 0)
(0.088198 0.0285841 0)
(0.110049 0.0276091 0)
(0.125673 0.0271683 0)
(0.155157 0.0266651 0)
(0.165558 0.0218596 0)
(0.203713 0.0133107 0)
(0.19427 -0.0204882 0)
(0.225684 -0.0754752 0)
(0.155432 -0.25272 0)
(0.125581 -0.434446 0)
(0.119444 0.140802 0)
(0.152131 0.0861438 0)
(0.228612 0.0635521 0)
(0.284064 0.0480834 0)
(0.325448 0.0374305 0)
(0.363722 0.0296461 0)
(0.392384 0.0242142 0)
(0.423606 0.0201786 0)
(0.443456 0.0172327 0)
(0.472048 0.014991 0)
(0.484773 0.0132514 0)
(0.514269 0.011987 0)
(0.51965 0.0109009 0)
(0.552423 0.00981524 0)
(0.547613 0.00790974 0)
(0.580626 0.00353917 0)
(0.549912 -0.00581308 0)
(0.555585 -0.0273429 0)
(0.421255 -0.0734641 0)
(0.275488 -0.152246 0)
)
;

boundaryField
{
    movingWall
    {
        type            fixedValue;
        value           uniform (1 0 0);
    }
    fixedWalls
    {
        type            noSlip;
    }
    frontAndBack
    {
        type            empty;
    }
}


// ************************************************************************* //
