/*--------------------------------*- C++ -*----------------------------------*\
  =========                 |
  \\      /  F ield         | OpenFOAM: The Open Source CFD Toolbox
   \\    /   O peration     | Website:  https://openfoam.org
    \\  /    A nd           | Version:  10
     \\/     M anipulation  |
\*---------------------------------------------------------------------------*/
FoamFile
{
    format      ascii;
    class       volVectorField;
    location    "5.2";
    object      U;
}
// * * * * * * * * * * * * * * * * * * * * * * * * * * * * * * * * * * * * * //

dimensions      [0 1 -1 0 0 0 0];

internalField   nonuniform List<vector> 
400
(
(-9.10547e-05 8.48607e-05 0)
(-0.00080592 0.000309786 0)
(-0.00201316 0.000379588 0)
(-0.00318786 0.000389949 0)
(-0.00435391 0.000384803 0)
(-0.0054731 0.000374521 0)
(-0.00652337 0.000358379 0)
(-0.00748162 0.000333247 0)
(-0.00831817 0.000295661 0)
(-0.00899676 0.000242132 0)
(-0.00947482 0.0001696 0)
(-0.00970511 7.64361e-05 0)
(-0.00963698 -4.04838e-05 0)
(-0.00922217 -0.000178537 0)
(-0.00842374 -0.000331851 0)
(-0.00722334 -0.000489352 0)
(-0.00564112 -0.000630694 0)
(-0.00378467 -0.000718272 0)
(-0.00168418 -0.000669707 0)
(-0.000279231 -0.000302542 0)
(-0.000335012 0.000813674 0)
(-0.00181433 0.00174839 0)
(-0.00403995 0.00202088 0)
(-0.00619989 0.0020376 0)
(-0.00831311 0.0019699 0)
(-0.0103087 0.00186127 0)
(-0.01214 0.00171386 0)
(-0.013763 0.00152021 0)
(-0.0151281 0.00127096 0)
(-0.0161787 0.000956617 0)
(-0.016852 0.000568655 0)
(-0.0170839 0.000100389 0)
(-0.0168065 -0.000447412 0)
(-0.0159549 -0.00106222 0)
(-0.0144858 -0.00171885 0)
(-0.0123834 -0.00237222 0)
(-0.00969171 -0.0029437 0)
(-0.00657335 -0.00328599 0)
(-0.00308943 -0.00309062 0)
(-0.000619773 -0.00165125 0)
(-0.000426913 0.0020995 0)
(-0.00221051 0.00401822 0)
(-0.00484004 0.00455215 0)
(-0.0073767 0.0045545 0)
(-0.00984687 0.00436903 0)
(-0.0121702 0.00408478 0)
(-0.0142943 0.00371057 0)
(-0.0161709 0.0032362 0)
(-0.0177458 0.00264704 0)
(-0.0189586 0.0019277 0)
(-0.0197434 0.00106438 0)
(-0.0200266 4.7549e-05 0)
(-0.0197271 -0.00111936 0)
(-0.0187694 -0.00241402 0)
(-0.0170952 -0.00378579 0)
(-0.014673 -0.00514363 0)
(-0.011538 -0.00632943 0)
(-0.00786924 -0.00704427 0)
(-0.0037301 -0.00667093 0)
(-0.000761072 -0.00377625 0)
(-0.000455543 0.003428 0)
(-0.00237046 0.00637872 0)
(-0.00519052 0.00717522 0)
(-0.00790362 0.00715598 0)
(-0.0105484 0.00684891 0)
(-0.0130432 0.00638925 0)
(-0.0153375 0.00579176 0)
(-0.0173848 0.0050428 0)
(-0.019132 0.00412141 0)
(-0.0205179 0.00300417 0)
(-0.0214721 0.0016691 0)
(-0.0219146 0.000101638 0)
(-0.0217492 -0.00169874 0)
(-0.0208721 -0.00370906 0)
(-0.0191892 -0.00585938 0)
(-0.0166293 -0.00801476 0)
(-0.0131946 -0.00992834 0)
(-0.00907089 -0.0111186 0)
(-0.0043218 -0.0106001 0)
(-0.000881494 -0.00609945 0)
(-0.000470345 0.00483123 0)
(-0.00248223 0.0088818 0)
(-0.00545654 0.00995595 0)
(-0.0083178 0.00991731 0)
(-0.0111175 0.00949085 0)
(-0.0137752 0.0088607 0)
(-0.0162455 0.00804799 0)
(-0.0184872 0.00703529 0)
(-0.0204511 0.00579385 0)
(-0.0220775 0.00428929 0)
(-0.0232924 0.0024859 0)
(-0.0240028 0.000353803 0)
(-0.0240934 -0.00211922 0)
(-0.0234242 -0.00491974 0)
(-0.0218437 -0.00796919 0)
(-0.0192113 -0.0110924 0)
(-0.0154581 -0.0139384 0)
(-0.0107574 -0.0157891 0)
(-0.00517695 -0.0151832 0)
(-0.00106362 -0.00882992 0)
(-0.000486712 0.00629834 0)
(-0.00260665 0.0115218 0)
(-0.00575514 0.0128936 0)
(-0.00878612 0.012842 0)
(-0.011765 0.0123042 0)
(-0.0146139 0.0115171 0)
(-0.0172954 0.0105091 0)
(-0.0197768 0.00925889 0)
(-0.0220168 0.00772843 0)
(-0.0239608 0.00586858 0)
(-0.0255344 0.00362295 0)
(-0.0266349 0.000935589 0)
(-0.027125 -0.00223674 0)
(-0.0268156 -0.00590969 0)
(-0.0254746 -0.0100166 0)
(-0.0228537 -0.0143533 0)
(-0.0187561 -0.0184483 0)
(-0.0132914 -0.0212742 0)
(-0.00651892 -0.0207083 0)
(-0.00137166 -0.0121798 0)
(-0.000507733 0.00784022 0)
(-0.0027582 0.01432 0)
(-0.00611405 0.0160126 0)
(-0.00934487 0.0159553 0)
(-0.0125324 0.0153159 0)
(-0.0156029 0.0143895 0)
(-0.01853 0.0132138 0)
(-0.0212938 0.011764 0)
(-0.0238667 0.00999195 0)
(-0.0262066 0.00783029 0)
(-0.0282466 0.00519397 0)
(-0.0298807 0.00198694 0)
(-0.0309553 -0.00188419 0)
(-0.0312278 -0.00650183 0)
(-0.0303604 -0.0118477 0)
(-0.0279453 -0.0177261 0)
(-0.0235692 -0.0235446 0)
(-0.0171571 -0.0278742 0)
(-0.00870921 -0.0276253 0)
(-0.00192713 -0.0165309 0)
(-0.000533689 0.00947398 0)
(-0.00293986 0.0173079 0)
(-0.00653833 0.0193453 0)
(-0.00999683 0.0192868 0)
(-0.0134171 0.0185539 0)
(-0.0167309 0.017507 0)
(-0.0199268 0.0161961 0)
(-0.0230036 0.0145956 0)
(-0.0259551 0.0126482 0)
(-0.0287628 0.0102668 0)
(-0.031381 0.00733143 0)
(-0.0337158 0.00368877 0)
(-0.0356181 -0.000840463 0)
(-0.0367988 -0.00641666 0)
(-0.0367983 -0.0131738 0)
(-0.0349965 -0.0209967 0)
(-0.0306383 -0.0292189 0)
(-0.0232247 -0.0359228 0)
(-0.0125377 -0.0366099 0)
(-0.0030284 -0.0225925 0)
(-0.000565433 0.0112177 0)
(-0.00315516 0.0205178 0)
(-0.00703209 0.0229218 0)
(-0.010741 0.02286 0)
(-0.0144087 0.0220361 0)
(-0.0179738 0.020885 0)
(-0.0214441 0.0194742 0)
(-0.0248435 0.0177818 0)
(-0.0281971 0.0157461 0)
(-0.0315249 0.0132633 0)
(-0.0348261 0.0101771 0)
(-0.0380545 0.00626667 0)
(-0.0410666 0.00124329 0)
(-0.0435943 -0.00520899 0)
(-0.045106 -0.0134696 0)
(-0.0447061 -0.0236477 0)
(-0.0411695 -0.0351717 0)
(-0.0331935 -0.0456476 0)
(-0.0198706 -0.0486862 0)
(-0.00544344 -0.0318442 0)
(-0.00060593 0.0130928 0)
(-0.00341334 0.023985 0)
(-0.00760701 0.0267694 0)
(-0.0115833 0.0266899 0)
(-0.0155007 0.0257668 0)
(-0.0193068 0.0245204 0)
(-0.0230326 0.0230427 0)
(-0.0267333 0.0213235 0)
(-0.0304754 0.0193057 0)
(-0.034334 0.0168794 0)
(-0.0383804 0.0138619 0)
(-0.0426546 0.00996969 0)
(-0.0471095 0.00478771 0)
(-0.0515821 -0.00226195 0)
(-0.0555537 -0.0118221 0)
(-0.0579757 -0.0245586 0)
(-0.0571257 -0.040337 0)
(-0.0503669 -0.0566699 0)
(-0.0348277 -0.0652524 0)
(-0.0110019 -0.0474502 0)
(-0.000662099 0.01513 0)
(-0.00373439 0.0277522 0)
(-0.00828937 0.0309144 0)
(-0.0125436 0.0307823 0)
(-0.0166987 0.0297335 0)
(-0.0207127 0.0283863 0)
(-0.0246438 0.026865 0)
(-0.0285825 0.0251807 0)
(-0.0326436 0.0232955 0)
(-0.0369717 0.0211145 0)
(-0.0417407 0.0184558 0)
(-0.0471405 0.0150007 0)
(-0.0533384 0.0102188 0)
(-0.0603704 0.00328726 0)
(-0.0680903 -0.00686456 0)
(-0.0757513 -0.0215513 0)
(-0.0812943 -0.0419665 0)
(-0.0799112 -0.0669207 0)
(-0.063517 -0.0879996 0)
(-0.0222053 -0.0763438 0)
(-0.000748356 0.0173785 0)
(-0.00415696 0.0318776 0)
(-0.00912945 0.0353858 0)
(-0.0136647 0.0351341 0)
(-0.018028 0.0339051 0)
(-0.0221909 0.0324279 0)
(-0.0262413 0.030866 0)
(-0.0303051 0.0292617 0)
(-0.0345445 0.0276149 0)
(-0.039178 0.0258773 0)
(-0.0445029 0.0239201 0)
(-0.0509175 0.0214689 0)
(-0.0589224 0.0179955 0)
(-0.0690703 0.0125705 0)
(-0.0819285 0.00369219 0)
(-0.0980253 -0.0108683 0)
(-0.115361 -0.0346959 0)
(-0.124199 -0.0725047 0)
(-0.10548 -0.120636 0)
(-0.0363258 -0.130896 0)
(-0.000893442 0.019913 0)
(-0.00475083 0.0364137 0)
(-0.0102146 0.0401664 0)
(-0.0150243 0.0396821 0)
(-0.0195452 0.0381979 0)
(-0.0237678 0.0365462 0)
(-0.0278132 0.0349223 0)
(-0.0318361 0.0334085 0)
(-0.0360305 0.0320624 0)
(-0.0406696 0.0309191 0)
(-0.0461566 0.0299707 0)
(-0.0531013 0.029111 0)
(-0.0624223 0.0280293 0)
(-0.0754762 0.0260315 0)
(-0.0942671 0.0216986 0)
(-0.120798 0.0114325 0)
(-0.151857 -0.0142471 0)
(-0.167674 -0.0756256 0)
(-0.138707 -0.174579 0)
(-0.0424207 -0.219233 0)
(-0.00116863 0.022946 0)
(-0.00568465 0.0417216 0)
(-0.0117115 0.0456477 0)
(-0.0167301 0.0447948 0)
(-0.0213108 0.0428519 0)
(-0.0254819 0.0408262 0)
(-0.0293816 0.0389855 0)
(-0.033167 0.0374648 0)
(-0.0370359 0.0363873 0)
(-0.041273 0.0359042 0)
(-0.0463229 0.0362148 0)
(-0.0529186 0.0375514 0)
(-0.0622763 0.0401381 0)
(-0.0763233 0.0439265 0)
(-0.0980319 0.0476697 0)
(-0.129715 0.0443685 0)
(-0.165534 0.0127169 0)
(-0.175937 -0.0880661 0)
(-0.140179 -0.248898 0)
(-0.0422706 -0.324131 0)
(-0.00155699 0.0266989 0)
(-0.00679067 0.0467486 0)
(-0.0136306 0.0501666 0)
(-0.0189693 0.0484979 0)
(-0.023649 0.0461526 0)
(-0.0276405 0.0439992 0)
(-0.0311701 0.0421813 0)
(-0.0344261 0.0407841 0)
(-0.0375741 0.0399672 0)
(-0.0408107 0.0400004 0)
(-0.0444602 0.041335 0)
(-0.0491055 0.0446649 0)
(-0.0558396 0.0509505 0)
(-0.0663676 0.0607279 0)
(-0.0833589 0.0723057 0)
(-0.1076 0.0727128 0)
(-0.135928 0.0314029 0)
(-0.136678 -0.103802 0)
(-0.118098 -0.307874 0)
(-0.0395309 -0.421316 0)
(-0.00359838 0.0301937 0)
(-0.0110256 0.0556609 0)
(-0.0173395 0.0589408 0)
(-0.022082 0.0568114 0)
(-0.0260185 0.0532143 0)
(-0.0295012 0.0498311 0)
(-0.0325972 0.0469781 0)
(-0.0353294 0.0448107 0)
(-0.0376943 0.0435052 0)
(-0.0396834 0.0433643 0)
(-0.0413041 0.0449903 0)
(-0.0426286 0.0493868 0)
(-0.0441222 0.058163 0)
(-0.0459221 0.0718824 0)
(-0.0498338 0.0885448 0)
(-0.0536817 0.0889469 0)
(-0.0659991 0.0441734 0)
(-0.0602265 -0.104809 0)
(-0.0784813 -0.33359 0)
(-0.0197034 -0.497063 0)
(-0.00125757 0.0442682 0)
(-0.00897295 0.0582791 0)
(-0.020279 0.0583664 0)
(-0.0255556 0.0537907 0)
(-0.0303885 0.0504712 0)
(-0.0335584 0.0478942 0)
(-0.0357888 0.0458418 0)
(-0.0372197 0.0441903 0)
(-0.0378805 0.0430913 0)
(-0.0376187 0.0427941 0)
(-0.0361378 0.0439701 0)
(-0.0327571 0.0474346 0)
(-0.0272245 0.0550552 0)
(-0.0170841 0.066748 0)
(-0.00579824 0.0819262 0)
(0.0158799 0.0830484 0)
(0.0192921 0.0426334 0)
(0.0301514 -0.0895784 0)
(-0.0212893 -0.328019 0)
(0.0124364 -0.524587 0)
(-0.0121826 0.0335212 0)
(-0.0247311 0.0801298 0)
(-0.0248686 0.0785093 0)
(-0.0317711 0.0732579 0)
(-0.0344557 0.0660077 0)
(-0.0354811 0.0597154 0)
(-0.034808 0.0543946 0)
(-0.0328297 0.0500142 0)
(-0.0297204 0.0465461 0)
(-0.0253037 0.0438382 0)
(-0.0196732 0.0423217 0)
(-0.0114967 0.0422363 0)
(-0.00134418 0.0453534 0)
(0.0157372 0.0512043 0)
(0.0351438 0.0611687 0)
(0.069746 0.0636297 0)
(0.082308 0.0373268 0)
(0.11776 -0.0574582 0)
(0.0552909 -0.295149 0)
(0.0559617 -0.509956 0)
(-0.0767707 0.097333 0)
(-0.062441 0.0601388 0)
(-0.0645939 0.0601345 0)
(-0.0436666 0.0534713 0)
(-0.0267069 0.0465868 0)
(-0.00731371 0.0414056 0)
(0.0109854 0.0376332 0)
(0.0291059 0.0343209 0)
(0.0457234 0.0318412 0)
(0.0629721 0.0293355 0)
(0.0776748 0.0277686 0)
(0.0958133 0.0263917 0)
(0.108609 0.0260843 0)
(0.133943 0.0270514 0)
(0.145056 0.0255313 0)
(0.192855 0.021708 0)
(0.193365 -0.0118008 0)
(0.24406 -0.0806381 0)
(0.171917 -0.268037 0)
(0.126931 -0.447934 0)
(0.119972 0.140501 0)
(0.152557 0.0860802 0)
(0.230068 0.0636007 0)
(0.285279 0.0482715 0)
(0.326876 0.0376318 0)
(0.365196 0.0299517 0)
(0.394144 0.02451 0)
(0.425737 0.0206012 0)
(0.445377 0.0177494 0)
(0.474812 0.0155223 0)
(0.486695 0.0138656 0)
(0.517049 0.0127278 0)
(0.521991 0.0116294 0)
(0.555658 0.0114296 0)
(0.551865 0.00986494 0)
(0.588789 0.00706 0)
(0.563129 -0.00207413 0)
(0.574537 -0.026397 0)
(0.436594 -0.0731819 0)
(0.278949 -0.153725 0)
)
;

boundaryField
{
    movingWall
    {
        type            fixedValue;
        value           uniform (1 0 0);
    }
    fixedWalls
    {
        type            noSlip;
    }
    frontAndBack
    {
        type            empty;
    }
}


// ************************************************************************* //
