/*--------------------------------*- C++ -*----------------------------------*\
  =========                 |
  \\      /  F ield         | OpenFOAM: The Open Source CFD Toolbox
   \\    /   O peration     | Website:  https://openfoam.org
    \\  /    A nd           | Version:  10
     \\/     M anipulation  |
\*---------------------------------------------------------------------------*/
FoamFile
{
    format      ascii;
    class       surfaceScalarField;
    location    "9.15";
    object      phi;
}
// * * * * * * * * * * * * * * * * * * * * * * * * * * * * * * * * * * * * * //

dimensions      [0 3 -1 0 0 0 0];

internalField   nonuniform List<scalar> 
22800
(
-3.11735e-06
4.10026e-06
-9.78324e-07
-9.85978e-06
7.37217e-06
-6.29744e-07
-1.79076e-05
8.46716e-06
-4.19376e-07
-2.65572e-05
8.95757e-06
-3.07944e-07
-3.55557e-05
9.32602e-06
-3.27483e-07
-4.48194e-05
9.71123e-06
-4.47544e-07
-5.42585e-05
1.01023e-05
-6.6327e-07
-6.36892e-05
1.0427e-05
-9.96225e-07
-7.27853e-05
1.05788e-05
-1.48281e-06
-8.10407e-05
1.0423e-05
-2.16756e-06
-8.7746e-05
9.80201e-06
-3.09678e-06
-9.19904e-05
8.55179e-06
-4.30733e-06
-9.27242e-05
6.54036e-06
-5.80664e-06
-8.89113e-05
3.73315e-06
-7.54601e-06
-7.98088e-05
2.76176e-07
-9.37867e-06
-6.53263e-05
-3.46472e-06
-1.10178e-05
-4.65862e-05
-6.66957e-06
-1.20706e-05
-2.62139e-05
-8.27974e-06
-1.20925e-05
-8.17186e-06
-7.31389e-06
-1.07282e-05
-2.04567e-06
-6.12619e-06
-6.18758e-06
1.28017e-05
-2.5139e-06
-1.76628e-05
2.14008e-05
-2.55343e-06
-3.1097e-05
2.4377e-05
-2.47563e-06
-4.54412e-05
2.56789e-05
-2.37719e-06
-6.02593e-05
2.65383e-05
-2.39417e-06
-7.53434e-05
2.73133e-05
-2.51792e-06
-9.04849e-05
2.79986e-05
-2.75481e-06
-0.000105352
2.84329e-05
-3.13908e-06
-0.000119417
2.83659e-05
-3.72208e-06
-0.000131903
2.74766e-05
-4.56724e-06
-0.000141751
2.5392e-05
-5.74243e-06
-0.000147616
2.17209e-05
-7.30428e-06
-0.000147968
1.61613e-05
-9.2689e-06
-0.000141352
8.69876e-06
-1.15814e-05
-0.000126754
-2.43319e-07
-1.40779e-05
-0.000103935
-1.00039e-05
-1.62805e-05
-7.45553e-05
-1.84027e-05
-1.76461e-05
-4.25075e-05
-2.2815e-05
-1.75126e-05
-1.3877e-05
-2.07145e-05
-1.52299e-05
-7.9775e-06
-7.94513e-06
-7.24071e-06
2.3423e-05
-3.38056e-06
-2.04719e-05
3.8308e-05
-3.67598e-06
-3.58559e-05
4.34442e-05
-3.68324e-06
-5.22092e-05
4.56158e-05
-3.58361e-06
-6.90566e-05
4.69622e-05
-3.57653e-06
-8.61788e-05
4.81053e-05
-3.66969e-06
-0.000103363
4.90632e-05
-3.88023e-06
-0.000120274
4.95983e-05
-4.25479e-06
-0.000136371
4.93245e-05
-4.8613e-06
-0.00015084
4.77326e-05
-5.78721e-06
-0.000162534
4.42179e-05
-7.13156e-06
-0.000169966
3.81411e-05
-8.98829e-06
-0.000171355
2.89655e-05
-1.14153e-05
-0.000164776
1.65009e-05
-1.43808e-05
-0.000148668
1.29379e-06
-1.76455e-05
-0.000122508
-1.5496e-05
-2.06676e-05
-8.7921e-05
-3.03828e-05
-2.26071e-05
-4.9667e-05
-3.86159e-05
-2.24531e-05
-1.5593e-05
-3.55291e-05
-1.92595e-05
-1.39774e-05
-9.59309e-06
-7.45004e-06
3.4889e-05
-4.01591e-06
-2.11839e-05
5.65732e-05
-4.53131e-06
-3.7139e-05
6.40109e-05
-4.61154e-06
-5.41087e-05
6.71033e-05
-4.51775e-06
-7.16438e-05
6.89988e-05
-4.50156e-06
-8.9576e-05
7.06231e-05
-4.58567e-06
-0.00010776
7.20458e-05
-4.79886e-06
-0.00012594
7.29816e-05
-5.2028e-06
-0.000143664
7.29359e-05
-5.88733e-06
-0.000160186
7.12281e-05
-6.97351e-06
-0.000174361
6.70036e-05
-8.61088e-06
-0.000184564
5.93023e-05
-1.09587e-05
-0.000188669
4.72166e-05
-1.4146e-05
-0.000184179
3.02095e-05
-1.81988e-05
-0.000168655
8.66894e-06
-2.2899e-05
-0.00014071
-1.5895e-05
-2.75454e-05
-0.000101388
-3.89468e-05
-3.07585e-05
-5.64207e-05
-5.27559e-05
-3.08271e-05
-1.63442e-05
-4.94493e-05
-2.61562e-05
-1.78063e-05
-1.25154e-05
-7.2487e-06
4.66086e-05
-4.47097e-06
-2.08918e-05
7.53935e-05
-5.17723e-06
-3.68129e-05
8.5252e-05
-5.32003e-06
-5.38237e-05
8.93554e-05
-5.24131e-06
-7.15271e-05
9.19423e-05
-5.24002e-06
-8.98398e-05
9.42917e-05
-5.35584e-06
-0.000108732
9.65698e-05
-5.63208e-06
-0.000128091
9.84917e-05
-6.15045e-06
-0.000147628
9.95049e-05
-7.03194e-06
-0.000166753
9.88001e-05
-8.44698e-06
-0.000184417
9.52899e-05
-1.06225e-05
-0.000198913
8.76298e-05
-1.38318e-05
-0.000207728
7.43725e-05
-1.8341e-05
-0.000207533
5.43091e-05
-2.42947e-05
-0.000194499
2.71743e-05
-3.15394e-05
-0.000165791
-5.33135e-06
-3.92711e-05
-0.000120977
-3.85957e-05
-4.51651e-05
-6.656e-05
-6.10863e-05
-4.6087e-05
-1.74038e-05
-5.98046e-05
-3.8801e-05
-1.75454e-05
-1.76647e-05
-6.82418e-06
5.82578e-05
-4.82498e-06
-2.00504e-05
9.43284e-05
-5.70878e-06
-3.56081e-05
0.00010672
-5.91033e-06
-5.23378e-05
0.00011194
-5.85516e-06
-6.99011e-05
0.000115393
-5.88786e-06
-8.83178e-05
0.000118777
-6.06818e-06
-0.000107706
0.000122416
-6.45817e-06
-0.00012815
0.000126101
-7.16605e-06
-0.000149599
0.000129309
-8.35532e-06
-0.00017173
0.000131198
-1.02665e-05
-0.000193731
0.000130533
-1.3242e-05
-0.000213991
0.000125629
-1.77389e-05
-0.00022972
0.000114384
-2.42826e-05
-0.000236724
9.46216e-05
-3.3309e-05
-0.000229475
6.48104e-05
-4.48848e-05
-0.000202125
2.55459e-05
-5.82276e-05
-0.00015198
-1.89557e-05
-6.9785e-05
-8.43125e-05
-5.55137e-05
-7.32401e-05
-2.03784e-05
-6.20957e-05
-6.1643e-05
-1.15007e-05
-2.64232e-05
-6.24232e-06
6.9645e-05
-5.1449e-06
-1.88198e-05
0.000113115
-6.20945e-06
-3.37551e-05
0.000128123
-6.46776e-06
-4.99095e-05
0.00013453
-6.43565e-06
-6.69955e-05
0.000138984
-6.50509e-06
-8.51363e-05
0.000143677
-6.7598e-06
-0.000104615
0.00014918
-7.28576e-06
-0.000125752
0.000155463
-8.22533e-06
-0.000148813
0.000162168
-9.79657e-06
-0.000173877
0.000168597
-1.23349e-05
-0.000200587
0.000173592
-1.63499e-05
-0.000227747
0.000175375
-2.25853e-05
-0.000252737
0.000171404
-3.20305e-05
-0.000270756
0.000158406
-4.57654e-05
-0.000274396
0.000132891
-6.44404e-05
-0.000254184
9.21878e-05
-8.68539e-05
-0.000201994
3.7155e-05
-0.000108301
-0.000118405
-2.16807e-05
-0.000117421
-3.02811e-05
-4.98962e-05
-0.000100324
-8.82978e-08
-4.16935e-05
-5.52776e-06
8.06432e-05
-5.47047e-06
-1.72582e-05
0.000131576
-6.72969e-06
-3.13125e-05
0.000149216
-7.03839e-06
-4.65466e-05
0.000156779
-7.0146e-06
-6.27013e-05
0.000162242
-7.10261e-06
-7.99853e-05
0.000168375
-7.41384e-06
-9.8833e-05
0.00017609
-8.06189e-06
-0.000119803
0.000185662
-9.22864e-06
-0.000143526
0.000197088
-1.11975e-05
-0.000170601
0.000210091
-1.44198e-05
-0.000201363
0.000223972
-1.96172e-05
-0.000235466
0.000237397
-2.79194e-05
-0.000271187
0.000248092
-4.09669e-05
-0.000304367
0.000252316
-6.07305e-05
-0.000327016
0.000244093
-8.85525e-05
-0.000325997
0.000213886
-0.000122717
-0.000283469
0.000149186
-0.000154558
-0.00018647
5.19216e-05
-0.000170602
-6.08439e-05
-2.40593e-05
-0.000151463
8.72159e-06
-6.96537e-05
-4.71934e-06
9.11936e-05
-5.83103e-06
-1.54458e-05
0.00014961
-7.30789e-06
-2.83598e-05
0.000169784
-7.65377e-06
-4.22722e-05
0.000178299
-7.60725e-06
-5.69113e-05
0.000184554
-7.6726e-06
-7.25328e-05
0.000191988
-7.99175e-06
-8.96739e-05
0.000201938
-8.70711e-06
-0.000109075
0.000215103
-1.00396e-05
-0.000131674
0.000232024
-1.2336e-05
-0.000158587
0.000253165
-1.61619e-05
-0.000191002
0.000278843
-2.24553e-05
-0.000229897
0.000309022
-3.27289e-05
-0.000275464
0.000342813
-4.91546e-05
-0.000325986
0.000376862
-7.40237e-05
-0.000375988
0.000401664
-0.000107569
-0.000412602
0.000394674
-0.000144173
-0.000406019
0.0003157
-0.000173098
-0.000313888
0.0001469
-0.000187108
-0.000137323
-2.27251e-05
-0.000177899
-1.43216e-05
-0.00011428
-3.90638e-06
0.000101359
-6.25897e-06
-1.35665e-05
0.000167259
-7.98897e-06
-2.51229e-05
0.000189692
-8.35225e-06
-3.72939e-05
0.000198706
-8.23594e-06
-4.97406e-05
0.000205215
-8.21428e-06
-6.27105e-05
0.00021342
-8.46186e-06
-7.67541e-05
0.000225129
-9.14712e-06
-9.26598e-05
0.000241529
-1.052e-05
-0.000111495
0.000263827
-1.29678e-05
-0.000134671
0.000293458
-1.71167e-05
-0.000164008
0.000332161
-2.39813e-05
-0.000201806
0.000381863
-3.5044e-05
-0.000251174
0.000443923
-5.17423e-05
-0.000315831
0.000514921
-7.34018e-05
-0.000398397
0.000577632
-9.34029e-05
-0.000491459
0.00058624
-9.85035e-05
-0.000555007
0.000464737
-8.54887e-05
-0.000501659
0.000171019
-7.74672e-05
-0.000274928
-0.000132123
-0.000117334
-0.000139351
-0.000149899
-3.26084e-06
0.000111423
-6.80357e-06
-1.19746e-05
0.00018481
-8.83768e-06
-2.20648e-05
0.000208971
-9.18855e-06
-3.21071e-05
0.000217687
-8.9394e-06
-4.16658e-05
0.000223518
-8.74439e-06
-5.0916e-05
0.000231485
-8.81513e-06
-6.0299e-05
0.000243849
-9.33684e-06
-7.04439e-05
0.000262239
-1.05651e-05
-8.2229e-05
0.000288486
-1.28745e-05
-9.69035e-05
0.000324952
-1.68195e-05
-0.000116352
0.000374749
-2.31386e-05
-0.000143695
0.000441473
-3.22668e-05
-0.000185189
0.000527521
-4.21037e-05
-0.000253024
0.000626147
-4.33909e-05
-0.000364838
0.000707501
-1.80542e-05
-0.000529067
0.000697265
5.32035e-05
-0.000701967
0.000490103
0.000147534
-0.000705256
9.57976e-06
0.000164729
-0.000420299
-0.000469738
5.26577e-05
-0.000460627
-9.90231e-05
-3.09632e-06
0.000122127
-7.60688e-06
-1.1294e-05
0.00020301
-1.00024e-05
-1.99938e-05
0.000227998
-1.03269e-05
-2.76086e-05
0.000235179
-9.87667e-06
-3.36431e-05
0.000238952
-9.39977e-06
-3.8171e-05
0.000245177
-9.16332e-06
-4.14085e-05
0.000256451
-9.36526e-06
-4.35833e-05
0.000274653
-1.02398e-05
-4.5e-05
0.000301983
-1.20798e-05
-4.6133e-05
0.000341259
-1.51737e-05
-4.81997e-05
0.00039631
-1.94951e-05
-5.48814e-05
0.000471278
-2.31236e-05
-7.65506e-05
0.000567357
-1.81675e-05
-0.000138711
0.000672334
1.59733e-05
-0.000286195
0.000744414
0.000110571
-0.000554761
0.000685127
0.000280704
-0.000866615
0.000346221
0.000455736
-0.000888561
-0.000427716
0.000459243
-0.000540169
-0.00107925
0.000261124
-0.00101884
1.80412e-05
-3.91122e-06
0.000134864
-8.82666e-06
-1.24449e-05
0.000223109
-1.15644e-05
-2.00868e-05
0.000247388
-1.17483e-05
-2.5148e-05
0.000251211
-1.09714e-05
-2.71959e-05
0.00025111
-1.01108e-05
-2.62427e-05
0.000253705
-9.48127e-06
-2.22598e-05
0.000261735
-9.26627e-06
-1.4893e-05
0.000276923
-9.63684e-06
-3.62502e-06
0.000301491
-1.07762e-05
1.19059e-05
0.000338288
-1.25602e-05
3.12256e-05
0.000390953
-1.39623e-05
5.03643e-05
0.000462779
-1.06395e-05
5.23752e-05
0.000553903
1.14437e-05
-8.04934e-06
0.000649107
8.36516e-05
-0.000208283
0.000701496
0.000243152
-0.000608382
0.000593115
0.000492111
-0.0010266
5.9213e-05
0.00070523
-0.00104397
-0.00103511
0.00062476
-0.000677822
-0.00177579
0.000330382
-0.00174965
5.29866e-05
-6.85291e-06
0.000152767
-1.10492e-05
-1.7219e-05
0.000247931
-1.44565e-05
-2.42229e-05
0.000269032
-1.464e-05
-2.64903e-05
0.00026693
-1.34516e-05
-2.4137e-05
0.00026072
-1.19627e-05
-1.73184e-05
0.000257536
-1.06497e-05
-5.76495e-06
0.000259949
-9.76814e-06
1.13417e-05
0.000269258
-9.44145e-06
3.5091e-05
0.000287499
-9.75753e-06
6.7306e-05
0.000316437
-1.0364e-05
0.00010866
0.000359076
-9.47762e-06
0.000155091
0.000417248
-8.99327e-07
0.000185655
0.000490703
3.26358e-05
0.00014081
0.000566102
0.000127849
-9.30349e-05
0.000607762
0.000327579
-0.000552494
0.000449236
0.000603338
-0.00100724
-0.000261313
0.000775272
-0.00110239
-0.00149413
0.000554169
-0.000802611
-0.00232756
0.000251999
-0.00251598
-3.62734e-05
-1.23996e-05
0.000179558
-1.43917e-05
-2.63985e-05
0.000279664
-1.77339e-05
-3.36477e-05
0.000293781
-1.75003e-05
-3.38884e-05
0.000282718
-1.55471e-05
-2.74095e-05
0.000267689
-1.34476e-05
-1.47406e-05
0.000256452
-1.15849e-05
4.29408e-06
0.000251145
-1.02303e-05
3.05015e-05
0.000252432
-9.38158e-06
6.59221e-05
0.00026135
-9.27177e-06
0.000113145
0.000278561
-9.34735e-06
0.00017398
0.000306001
-7.75931e-06
0.000246155
0.000343141
1.93199e-06
0.000311484
0.000388973
3.64005e-05
0.000317973
0.00043111
0.000128504
0.000153924
0.000449208
0.000322603
-0.000234108
0.000272236
0.000565031
-0.00070194
-0.000454943
0.000661462
-0.000969769
-0.00163462
0.000408322
-0.00081916
-0.0026564
0.000178236
-0.00317002
-0.000165121
-3.41545e-05
0.00023597
-2.22574e-05
-5.25386e-05
0.000325194
-2.71463e-05
-5.67938e-05
0.000324352
-2.63159e-05
-5.0083e-05
0.000299356
-2.33489e-05
-3.62657e-05
0.000273538
-1.96664e-05
-1.66458e-05
0.00025308
-1.62481e-05
9.15225e-06
0.000238959
-1.36121e-05
4.27983e-05
0.000230615
-1.18291e-05
8.6782e-05
0.000228562
-1.11958e-05
0.000144738
0.000232242
-1.16359e-05
0.000218731
0.000242575
-1.05673e-05
0.000308919
0.000256802
-3.84885e-06
0.000402306
0.000273718
2.18667e-05
0.000466189
0.000277862
8.93646e-05
0.000415776
0.0002626
0.000237021
0.000160818
0.000103719
0.000423475
-0.00029314
-0.00048132
0.000480336
-0.000725571
-0.00152491
0.000322715
-0.000756906
-0.00275798
0.000132912
-0.00363303
-0.0002939
-2.97555e-05
0.000303557
-3.78318e-05
-6.64349e-05
0.000400665
-3.87909e-05
-7.87788e-05
0.000372515
-3.58188e-05
-7.53623e-05
0.00032497
-2.90305e-05
-5.85329e-05
0.000280706
-2.39979e-05
-3.19867e-05
0.0002461
-1.95655e-05
2.66811e-06
0.000220616
-1.63112e-05
4.57094e-05
0.000201797
-1.42225e-05
9.89949e-05
0.000189195
-1.39182e-05
0.000166006
0.00018055
-1.5319e-05
0.000248386
0.000176953
-1.67579e-05
0.000347332
0.000173112
-1.5256e-05
0.000451329
0.000170833
-1.11183e-06
0.000541616
0.000151239
3.63363e-05
0.00056087
0.000116759
0.000126588
0.000416757
-8.12743e-06
0.000255959
3.83572e-05
-0.00040561
0.000302689
-0.000467231
-0.00128352
0.000264198
-0.000648374
-0.00266441
8.75732e-05
-0.00386235
-0.000419057
-0.000181874
0.000532069
-4.66384e-05
-0.000176931
0.000456138
-6.04165e-05
-0.000143411
0.000400016
-6.10205e-05
-0.000104069
0.000340403
-5.47743e-05
-5.48643e-05
0.00027534
-4.38393e-05
-8.93414e-07
0.00022609
-3.39611e-05
5.65171e-05
0.000190077
-2.68721e-05
0.000118876
0.000161975
-2.25376e-05
0.000187291
0.000142084
-2.13038e-05
0.000265911
0.00012519
-2.326e-05
0.000354625
0.000115324
-2.70857e-05
0.000455497
0.000102918
-3.06785e-05
0.000558227
9.59655e-05
-2.78616e-05
0.000647441
7.22663e-05
-1.0242e-05
0.000695066
3.63566e-05
3.27773e-05
0.00063461
-6.81097e-05
0.000120438
0.000409743
-0.000329392
0.000148649
-5.69646e-05
-0.00100995
0.000193141
-0.00037988
-0.00238068
3.9183e-05
-0.00369045
-0.000551771
-0.000372037
0.00107637
-0.000172263
-0.000261984
0.000478264
-0.000132179
-0.000103709
0.000347375
-0.000105634
7.13428e-05
0.00024528
-7.99284e-05
0.000239098
0.000171606
-6.40208e-05
0.000393925
0.000122744
-5.14806e-05
0.000534343
9.23443e-05
-4.26847e-05
0.000663282
7.03758e-05
-3.73397e-05
0.000783288
5.69225e-05
-3.48445e-05
0.000899378
4.49227e-05
-3.58235e-05
0.00101426
3.95289e-05
-3.9089e-05
0.00113119
3.10218e-05
-4.5027e-05
0.00124953
2.68645e-05
-4.92429e-05
0.00135649
1.11351e-05
-4.58277e-05
0.00144174
-1.55692e-05
-3.33226e-05
0.00145865
-9.43281e-05
9.30774e-06
0.00136282
-0.00028096
4.73943e-05
0.000977543
-0.000717455
9.27838e-05
0.000274711
-0.00166936
-8.48192e-06
-0.00273179
-0.000683955
0.001226
-0.000149627
0.00186658
-0.000162321
0.00237692
-0.000162968
0.00277188
-0.000149676
0.00307627
-0.000132782
0.00331754
-0.000118528
0.0035149
-0.000105021
0.00368056
-9.52787e-05
0.00382293
-8.54503e-05
0.00394818
-8.03227e-05
0.00406186
-7.41575e-05
0.00416604
-7.31575e-05
0.00426126
-6.83512e-05
0.00434064
-6.82508e-05
0.00438189
-5.68106e-05
0.00434268
-5.51268e-05
0.00409306
-3.13346e-05
0.00343807
-6.24677e-05
0.00189429
-0.00012558
-0.000837502
-5.3448e-06
6.40313e-06
-2.03665e-06
-1.68848e-05
1.30318e-05
-2.12152e-06
-3.07308e-05
1.54099e-05
-1.98327e-06
-4.5409e-05
1.62767e-05
-1.9065e-06
-6.04352e-05
1.67109e-05
-2.01222e-06
-7.56481e-05
1.70599e-05
-2.29445e-06
-9.08759e-05
1.73306e-05
-2.76604e-06
-0.000105801
1.74001e-05
-3.47151e-06
-0.000119894
1.70853e-05
-4.47516e-06
-0.000132368
1.61573e-05
-5.85065e-06
-0.000142151
1.43547e-05
-7.66857e-06
-0.000147897
1.1414e-05
-9.97512e-06
-0.000148082
7.13665e-06
-1.27579e-05
-0.000141221
1.49908e-06
-1.59065e-05
-0.000126229
-5.24047e-06
-1.91305e-05
-0.000103038
-1.22402e-05
-2.19684e-05
-7.33222e-05
-1.79926e-05
-2.37936e-05
-4.11018e-05
-2.03646e-05
-2.39484e-05
-1.29389e-05
-1.71468e-05
-2.17443e-05
-5.3358e-06
-1.37292e-05
-1.22475e-05
2.02325e-05
-4.09577e-06
-3.4174e-05
3.73983e-05
-4.99341e-06
-5.98375e-05
4.36606e-05
-5.06289e-06
-8.68494e-05
4.5917e-05
-5.00564e-06
-0.000114264
4.68561e-05
-5.12523e-06
-0.000141604
4.73476e-05
-5.46485e-06
-0.000168406
4.74433e-05
-6.06635e-06
-0.000194007
4.68676e-05
-7.00531e-06
-0.000217448
4.51864e-05
-8.38161e-06
-0.000237406
4.18563e-05
-1.03088e-05
-0.000252162
3.62653e-05
-1.28964e-05
-0.000259641
2.78043e-05
-1.62163e-05
-0.000257562
1.60419e-05
-2.02529e-05
-0.000243938
1.17422e-06
-2.48802e-05
-0.000217158
-1.6452e-05
-2.96464e-05
-0.000177316
-3.45211e-05
-3.3842e-05
-0.000127077
-4.93778e-05
-3.64993e-05
-7.27223e-05
-5.57153e-05
-3.6517e-05
-2.45995e-05
-4.79493e-05
-3.25502e-05
-1.87415e-05
-1.91389e-05
-1.52064e-05
3.738e-05
-5.32164e-06
-4.17588e-05
6.69981e-05
-6.72334e-06
-7.25605e-05
7.77102e-05
-6.93109e-06
-0.000104784
8.14277e-05
-6.87079e-06
-0.000137327
8.27818e-05
-6.95971e-06
-0.000169629
8.32561e-05
-7.27548e-06
-0.000201159
8.29763e-05
-7.88333e-06
-0.000231187
8.15265e-05
-8.88549e-06
-0.00025867
7.82245e-05
-1.04164e-05
-0.000282163
7.21973e-05
-1.26359e-05
-0.000299765
6.24456e-05
-1.57093e-05
-0.000309144
4.79676e-05
-1.9773e-05
-0.000307649
2.80145e-05
-2.48826e-05
-0.000292532
2.57844e-06
-3.09024e-05
-0.000261617
-2.77091e-05
-3.73034e-05
-0.000214468
-5.91921e-05
-4.31449e-05
-0.000153836
-8.56506e-05
-4.69665e-05
-8.74664e-05
-9.75458e-05
-4.69925e-05
-2.88501e-05
-8.45757e-05
-4.12493e-05
-3.39536e-05
-2.32311e-05
-1.62477e-05
5.58939e-05
-6.28217e-06
-4.46584e-05
9.89781e-05
-8.10061e-06
-7.75433e-05
0.000114411
-8.42712e-06
-0.000111906
0.000119646
-8.37352e-06
-0.000146645
0.000121469
-8.44912e-06
-0.000181265
0.000122052
-8.76268e-06
-0.000215317
0.000121635
-9.40493e-06
-0.000248178
0.000119696
-1.05111e-05
-0.000278908
0.00011533
-1.22631e-05
-0.000306128
0.000107335
-1.48904e-05
-0.000327901
9.42641e-05
-1.86564e-05
-0.000341644
7.45706e-05
-2.38191e-05
-0.000344135
4.69205e-05
-3.05611e-05
-0.000331746
1.08499e-05
-3.88592e-05
-0.000300956
-3.31909e-05
-4.82065e-05
-0.000249708
-8.07695e-05
-5.72166e-05
-0.00017999
-0.000122587
-6.35399e-05
-0.000101063
-0.000143343
-6.39568e-05
-3.13041e-05
-0.000125311
-5.51794e-05
-4.81893e-05
-2.95837e-05
-1.63744e-05
7.48478e-05
-7.05048e-06
-4.53518e-05
0.000132022
-9.2441e-06
-7.89901e-05
0.000152409
-9.68041e-06
-0.000114242
0.000159306
-9.64952e-06
-0.000150082
0.000161816
-9.7469e-06
-0.000186158
0.000162887
-1.01147e-05
-0.000222216
0.000162937
-1.0875e-05
-0.000257861
0.000161398
-1.22071e-05
-0.000292398
0.000157195
-1.43605e-05
-0.000324658
0.000148817
-1.76686e-05
-0.000352792
0.000134327
-2.2552e-05
-0.000374013
0.000111448
-2.94884e-05
-0.000384408
7.78871e-05
-3.89128e-05
-0.00037892
3.20843e-05
-5.10164e-05
-0.000352042
-2.61141e-05
-6.54949e-05
-0.000298774
-9.28868e-05
-8.0422e-05
-0.000218691
-0.000156033
-9.18017e-05
-0.000121845
-0.000192819
-9.34571e-05
-3.48219e-05
-0.000172068
-7.90673e-05
-6.09774e-05
-3.96986e-05
-1.60789e-05
9.38185e-05
-7.71676e-06
-4.50189e-05
0.000165526
-1.02724e-05
-7.88085e-05
0.000191106
-1.08175e-05
-0.000114393
0.000199857
-1.08225e-05
-0.000150851
0.000203356
-1.09689e-05
-0.000188029
0.000205433
-1.14365e-05
-0.000225943
0.000206778
-1.23859e-05
-0.000264537
0.000206879
-1.40527e-05
-0.00030351
0.000204589
-1.67769e-05
-0.000342096
0.000198176
-2.10393e-05
-0.000378754
0.00018524
-2.74969e-05
-0.000410736
0.000162682
-3.69916e-05
-0.000433578
0.000126898
-5.04507e-05
-0.000440668
7.45047e-05
-6.86396e-05
-0.000424244
4.28936e-06
-9.17118e-05
-0.000373946
-8.44488e-05
-0.000116964
-0.00028384
-0.000178341
-0.000137583
-0.000160683
-0.000247451
-0.000141765
-4.33924e-05
-0.000233356
-0.000117645
-7.60171e-05
-5.47759e-05
-1.55521e-05
0.000112589
-8.36363e-06
-4.41221e-05
0.00019918
-1.12937e-05
-7.77017e-05
0.000230165
-1.19472e-05
-0.000113228
0.000240934
-1.19862e-05
-0.00014989
0.000245695
-1.21826e-05
-0.000187754
0.000249296
-1.2759e-05
-0.000227169
0.000252828
-1.39213e-05
-0.000268524
0.000255982
-1.59732e-05
-0.000312083
0.000257719
-1.93676e-05
-0.000357754
0.000256293
-2.4781e-05
-0.000404706
0.000249051
-3.32089e-05
-0.000450795
0.000232241
-4.60541e-05
-0.00049178
0.000200951
-6.50987e-05
-0.000520364
0.000149438
-9.21144e-05
-0.000525006
7.21133e-05
-0.000127622
-0.000491497
-3.66082e-05
-0.000168204
-0.000399879
-0.000177934
-0.000200327
-0.000241975
-0.000317493
-0.000205283
-6.92379e-05
-0.000337915
-0.000168502
-0.000111207
-7.57418e-05
-1.48574e-05
0.000131027
-9.05099e-06
-4.28176e-05
0.000232799
-1.2388e-05
-7.58662e-05
0.000269318
-1.31422e-05
-0.000110897
0.00028214
-1.31902e-05
-0.000147186
0.000288285
-1.34028e-05
-0.000185024
0.000293769
-1.40499e-05
-0.000225113
0.000300241
-1.53853e-05
-0.000268365
0.00030779
-1.77857e-05
-0.000315775
0.000315764
-2.18313e-05
-0.000368238
0.000322768
-2.84318e-05
-0.000426179
0.000326387
-3.90125e-05
-0.00048897
0.000322847
-5.57352e-05
-0.000554092
0.000306648
-8.15415e-05
-0.000615896
0.00026978
-0.000119268
-0.000662904
0.000198927
-0.000168359
-0.000673658
6.96766e-05
-0.000218248
-0.000606538
-0.000154158
-0.000245454
-0.000412864
-0.000444678
-0.00023709
-0.000142638
-0.000559471
-0.000200132
-0.000221889
-0.00010161
-1.40488e-05
0.000149078
-9.83302e-06
-4.12198e-05
0.00026629
-1.36279e-05
-7.34073e-05
0.000308316
-1.44645e-05
-0.000107396
0.000322992
-1.44702e-05
-0.000142504
0.000330347
-1.46271e-05
-0.00017921
0.000337738
-1.5254e-05
-0.000218552
0.000347526
-1.66497e-05
-0.00026196
0.000360415
-1.92555e-05
-0.000311233
0.000376465
-2.37653e-05
-0.000368485
0.000395168
-3.13102e-05
-0.000436003
0.000415192
-4.37424e-05
-0.000515942
0.000433974
-6.39164e-05
-0.000609912
0.00044678
-9.53164e-05
-0.000717767
0.000442681
-0.000139071
-0.000833262
0.000392236
-0.000185382
-0.000929382
0.000226567
-0.000204943
-0.00092896
-0.000153579
-0.000174099
-0.000709881
-0.000709932
-0.000140934
-0.000300846
-0.000989447
-0.000156959
-0.000513113
-0.000123902
-1.32411e-05
0.000166838
-1.07782e-05
-3.95625e-05
0.000299727
-1.51045e-05
-7.05857e-05
0.000346981
-1.59946e-05
-0.000102902
0.000362953
-1.58806e-05
-0.000135802
0.000370905
-1.58718e-05
-0.000169888
0.000379698
-1.63356e-05
-0.00020644
0.000392535
-1.76043e-05
-0.000247297
0.000410908
-2.01558e-05
-0.000294946
0.000435887
-2.47408e-05
-0.000352677
0.000468374
-3.25906e-05
-0.000424789
0.000509003
-4.56811e-05
-0.000516933
0.000557655
-6.65806e-05
-0.000637051
0.00061111
-9.5955e-05
-0.000795109
0.000651486
-0.000124149
-0.000994133
0.000616441
-0.000118584
-0.00119858
0.000369576
-3.7069e-05
-0.00128183
-0.000247037
9.12256e-05
-0.00105062
-0.00112456
0.000105952
-0.000525324
-0.00159181
-4.02649e-05
-0.00107651
-0.000111824
-1.26621e-05
0.000184689
-1.19919e-05
-3.83083e-05
0.000333483
-1.69476e-05
-6.79777e-05
0.000385307
-1.7845e-05
-9.79769e-05
0.000401521
-1.75073e-05
-0.000127507
0.000408879
-1.71889e-05
-0.000157203
0.000417884
-1.7305e-05
-0.000188421
0.000432615
-1.81998e-05
-0.000223146
0.000455404
-2.03362e-05
-0.000264178
0.00048845
-2.44058e-05
-0.000315477
0.000534311
-3.14574e-05
-0.000382757
0.000595962
-4.28179e-05
-0.0004745
0.000675628
-5.84974e-05
-0.000604214
0.000769025
-7.03037e-05
-0.000791691
0.00084367
-4.80981e-05
-0.00104887
0.000795454
6.01122e-05
-0.00133051
0.000427645
0.000276771
-0.00147776
-0.000425757
0.000473507
-0.00126152
-0.00157418
0.00039811
-0.000707443
-0.00220899
0.000115752
-0.00185717
-2.5811e-05
-1.2766e-05
0.000203516
-1.36685e-05
-3.83275e-05
0.000368461
-1.94188e-05
-6.66597e-05
0.000423608
-2.02952e-05
-9.37409e-05
0.000438342
-1.96165e-05
-0.000118709
0.000443258
-1.881e-05
-0.000142165
0.000450531
-1.83557e-05
-0.000165331
0.000465014
-1.85973e-05
-0.000189948
0.000489709
-1.99277e-05
-0.000218472
0.000527729
-2.28344e-05
-0.000254453
0.000582914
-2.77969e-05
-0.000303373
0.00065987
-3.44833e-05
-0.000374307
0.000761493
-3.80536e-05
-0.00048403
0.000880038
-1.94582e-05
-0.000661158
0.000966551
7.0221e-05
-0.00093341
0.000887726
0.000290552
-0.00126173
0.000417183
0.000619488
-0.00147159
-0.000585525
0.000825365
-0.00129267
-0.00189122
0.00059736
-0.000764298
-0.00269269
0.00021645
-0.00265428
5.08611e-05
-1.41377e-05
0.000224884
-1.60572e-05
-4.07493e-05
0.000406199
-2.26916e-05
-6.8157e-05
0.000462661
-2.33935e-05
-9.20169e-05
0.000473423
-2.21926e-05
-0.000111432
0.000473298
-2.07356e-05
-0.000126965
0.000476134
-1.95511e-05
-0.000139601
0.00048733
-1.89474e-05
-0.000150494
0.00051016
-1.91952e-05
-0.000161162
0.000548118
-2.04968e-05
-0.000173814
0.000605551
-2.25445e-05
-0.000192494
0.000687596
-2.30082e-05
-0.000225054
0.000796423
-1.30085e-05
-0.000291223
0.000921645
3.60057e-05
-0.000430575
0.001006
0.000183551
-0.000694957
0.000911696
0.000483564
-0.00105411
0.000403333
0.000865115
-0.00129671
-0.000640121
0.00100242
-0.00117081
-0.00199954
0.000607183
-0.000737424
-0.00298409
0.000188392
-0.00334136
2.64051e-06
-1.86642e-05
0.000252399
-1.98998e-05
-4.85422e-05
0.000449621
-2.80002e-05
-7.53342e-05
0.00050345
-2.86376e-05
-9.50588e-05
0.000506464
-2.67688e-05
-0.000107742
0.000498354
-2.43354e-05
-0.000114143
0.000493937
-2.20505e-05
-0.000114799
0.000498496
-2.02789e-05
-0.000109966
0.000515114
-1.92282e-05
-9.99472e-05
0.000547185
-1.88429e-05
-8.51463e-05
0.000598557
-1.81707e-05
-6.72434e-05
0.000673894
-1.36789e-05
-5.19835e-05
0.000774443
5.82068e-06
-6.03323e-05
0.000890051
7.25783e-05
-0.000138033
0.000966452
0.000245102
-0.00035401
0.000884456
0.000570795
-0.00068045
0.000405659
0.000927453
-0.00091205
-0.000597944
0.000964694
-0.000912013
-0.00192129
0.000475888
-0.000639208
-0.00310642
0.000101528
-0.00390927
-0.000107572
-2.48631e-05
0.00028821
-2.53389e-05
-6.02028e-05
0.000501687
-3.44601e-05
-8.86701e-05
0.000549064
-3.46462e-05
-0.000106491
0.000540437
-3.16987e-05
-0.000113126
0.000519784
-2.82435e-05
-0.000109884
0.000504048
-2.49383e-05
-9.75594e-05
0.000498114
-2.21725e-05
-7.59635e-05
0.000504192
-2.00558e-05
-4.43488e-05
0.000524838
-1.85392e-05
-9.30904e-07
0.00056212
-1.63281e-05
5.39636e-05
0.000620778
-9.53755e-06
0.000119046
0.000699186
1.2107e-05
0.000180036
0.000788425
7.70366e-05
0.000198273
0.000844127
0.000232591
0.000101472
0.000780544
0.000523317
-0.000129666
0.00039135
0.000810478
-0.000355589
-0.00049391
0.000783351
-0.000535704
-0.00168472
0.000351868
-0.000455616
-0.00305342
4.51434e-05
-0.00432028
-0.00020973
-5.84871e-05
0.000359905
-3.54658e-05
-0.000100663
0.00056416
-4.74432e-05
-0.000123014
0.000592236
-4.71372e-05
-0.000129073
0.000566194
-4.30471e-05
-0.000123937
0.000532742
-3.77605e-05
-0.000109394
0.000505772
-3.25146e-05
-8.51351e-05
0.000488236
-2.79937e-05
-4.93013e-05
0.000480969
-2.44395e-05
5.8998e-07
0.000485755
-2.20045e-05
6.63951e-05
0.000503808
-1.91297e-05
0.000151918
0.000537947
-1.32598e-05
0.000258507
0.00058539
3.35752e-06
0.000377257
0.000639351
5.219e-05
0.000483692
0.00066402
0.000163037
0.000516675
0.000611693
0.000372889
0.000407859
0.000332174
0.000591466
0.000182873
-0.000347692
0.000559104
-0.000150276
-0.00131008
0.000281223
-0.000231835
-0.00286115
2.22027e-05
-0.00455401
-0.000292005
-3.99484e-05
0.000415934
-5.3912e-05
-0.000113142
0.000665019
-6.64564e-05
-0.00015458
0.000661099
-6.32433e-05
-0.000167264
0.000604725
-5.48776e-05
-0.000159197
0.000548198
-4.75209e-05
-0.000135422
0.000503028
-4.05954e-05
-9.81599e-05
0.000469487
-3.48254e-05
-4.66731e-05
0.00044569
-3.04304e-05
2.06231e-05
0.000432403
-2.78626e-05
0.000107042
0.000428184
-2.61138e-05
0.000215722
0.000436029
-2.35199e-05
0.000349513
0.000450619
-1.42754e-05
0.000501056
0.000472445
1.42512e-05
0.000652925
0.000470314
7.81729e-05
0.000762965
0.000425637
0.000202604
0.000745225
0.000249361
0.000356512
0.000559494
-0.000205036
0.000345765
0.000213308
-0.000915504
0.000215806
5.26636e-05
-0.00262278
9.84666e-06
-0.00456379
-0.000356616
-0.000189056
0.000619595
-6.12443e-05
-0.000210032
0.000711484
-8.59057e-05
-0.000218329
0.000698608
-9.02328e-05
-0.000217638
0.000632676
-8.34177e-05
-0.000191347
0.000549916
-7.18484e-05
-0.000145612
0.000483502
-6.0169e-05
-8.43184e-05
0.000432038
-5.07166e-05
-7.21212e-06
0.000390099
-4.40533e-05
8.44948e-05
0.000360133
-4.0741e-05
0.000193944
0.00033581
-4.03348e-05
0.000320733
0.000323687
-4.15332e-05
0.000468092
0.000313205
-4.06223e-05
0.000629856
0.000313404
-3.05845e-05
0.00078839
0.000301481
5.6084e-08
0.000928628
0.000262582
5.55952e-05
0.000981643
0.000161314
0.000155471
0.000941399
-0.000162011
0.000145867
0.00076972
-0.000673292
0.000122608
0.000497926
-0.00230748
-4.32328e-06
-0.00420674
-0.000410889
-0.000665516
0.0012833
-0.000170447
-0.000621651
0.000702253
-0.000166812
-0.000474222
0.000588016
-0.000142471
-0.000270464
0.00047062
-0.00012163
-5.79334e-05
0.000379339
-0.000105974
0.000153244
0.000312737
-9.18926e-05
0.000357261
0.000266478
-8.11422e-05
0.000553903
0.000229564
-7.34457e-05
0.000744317
0.000203835
-6.89611e-05
0.0009311
0.000181026
-6.78216e-05
0.00111819
0.000167238
-6.97343e-05
0.00130579
0.000153316
-7.27388e-05
0.0015022
0.000143695
-7.59445e-05
0.00169652
0.000129616
-6.828e-05
0.00188785
9.28944e-05
-5.49661e-05
0.00203504
3.55061e-05
-1.20751e-05
0.00208475
-0.000179382
1.50595e-05
0.00202992
-0.000546819
2.11415e-05
0.00138729
-0.00164191
-3.14208e-05
-0.00304148
-0.000461927
0.00126915
-0.000135486
0.00196871
-0.000159627
0.0025597
-0.000165943
0.00304144
-0.00016079
0.00343913
-0.000151132
0.00377409
-0.000140753
0.00406547
-0.000129927
0.00432155
-0.000121791
0.00455272
-0.000112783
0.00476168
-0.000108261
0.00495644
-0.000101678
0.00513823
-0.00010163
0.00530908
-9.5513e-05
0.00546914
-9.86869e-05
0.00559148
-8.62581e-05
0.00566361
-9.17537e-05
0.00552225
-6.93582e-05
0.0050175
-0.000104529
0.00336375
-0.000113747
-0.00051523
-6.10781e-06
6.70166e-06
-2.63051e-06
-1.95012e-05
1.45792e-05
-3.3074e-06
-3.55885e-05
1.74766e-05
-3.37256e-06
-5.254e-05
1.84562e-05
-3.41117e-06
-6.97663e-05
1.88349e-05
-3.62076e-06
-8.70821e-05
1.90598e-05
-4.03854e-06
-0.000104295
1.9148e-05
-4.70151e-06
-0.000121051
1.89543e-05
-5.66965e-06
-0.000136767
1.82613e-05
-7.02e-06
-0.000150579
1.67967e-05
-8.83591e-06
-0.000161306
1.42497e-05