/*--------------------------------*- C++ -*----------------------------------*\
  =========                 |
  \\      /  F ield         | OpenFOAM: The Open Source CFD Toolbox
   \\    /   O peration     | Website:  https://openfoam.org
    \\  /    A nd           | Version:  10
     \\/     M anipulation  |
\*---------------------------------------------------------------------------*/
FoamFile
{
    format      ascii;
    class       volScalarField;
    location    "6.825";
    object      p;
}
// * * * * * * * * * * * * * * * * * * * * * * * * * * * * * * * * * * * * * //

dimensions      [0 2 -2 0 0 0 0];

internalField   nonuniform List<scalar> 
400
(
-6.49382e-09
-2.08398e-05
2.92982e-05
0.000125929
0.000275717
0.000480572
0.000743169
0.00106656
0.00145308
0.00190342
0.0024154
0.00298234
0.00359138
0.00422169
0.004843
0.00541638
0.00589653
0.00623863
0.00643351
0.0064053
2.20649e-05
7.11149e-07
5.60189e-05
0.000153337
0.00030089
0.00050139
0.000758022
0.00107418
0.00145253
0.00189422
0.00239768
0.00295705
0.00355982
0.00418726
0.00480934
0.00538695
0.00587323
0.00622174
0.00642568
0.00639007
-3.56216e-05
-6.42832e-05
-1.07016e-05
8.28274e-05
0.000225348
0.000419871
0.00067018
0.00098059
0.00135504
0.00179624
0.00230449
0.00287604
0.00350171
0.00416254
0.00482775
0.00545425
0.00598726
0.00636912
0.00659099
0.00653059
-0.000153716
-0.000187625
-0.000137208
-4.95323e-05
8.53617e-05
0.000270953
0.000511945
0.000814031
0.00118307
0.00162437
0.00214137
0.00273381
0.00339514
0.00411047
0.00484809
0.00555934
0.00617609
0.00661893
0.00687508
0.00677848
-0.000338538
-0.000377202
-0.000331795
-0.000252417
-0.00012816
4.50466e-05
0.000273051
0.000563288
0.000924119
0.00136433
0.00189199
0.00251216
0.00322326
0.00401589
0.00485873
0.00569723
0.00644512
0.00698825
0.00730246
0.00714249
-0.0005891
-0.000632847
-0.000594382
-0.000526177
-0.000416467
-0.00026059
-5.14991e-05
0.000220143
0.000565556
0.000997728
0.00153075
0.00217774
0.00294702
0.0038327
0.00481473
0.00583381
0.00678019
0.00748534
0.00789786
0.00762159
-0.000902638
-0.00095231
-0.000922898
-0.000869367
-0.000779275
-0.000647581
-0.00046625
-0.000224214
9.25831e-05
0.000501616
0.00102386
0.00168297
0.00250111
0.00348946
0.00463606
0.00589589
0.00713574
0.00810655
0.00869355
0.00820942
-0.00127566
-0.00133239
-0.00131431
-0.00127947
-0.00121509
-0.00111622
-0.000974487
-0.000777772
-0.00050993
-0.000149639
0.000330711
0.000965977
0.00179628
0.0028612
0.00417317
0.005727
0.00738595
0.00880753
0.00970821
0.00890442
-0.00170368
-0.00176873
-0.00176409
-0.00175205
-0.00171993
-0.00166368
-0.00157564
-0.00144418
-0.00125292
-0.00097881
-0.000590023
-4.29726e-05
0.000720705
0.00176886
0.00317301
0.00499813
0.00718407
0.00937956
0.0108269
0.00973044
-0.00218119
-0.00225576
-0.00226591
-0.00227999
-0.00228614
-0.00228222
-0.00226282
-0.00221892
-0.00213717
-0.00199796
-0.00177222
-0.00141666
-0.000867638
-3.63301e-05
0.00119755
0.00295607
0.00553929
0.00893267
0.0113384
0.0106005
-0.00270196
-0.002787
-0.00281157
-0.00285309
-0.00290136
-0.00295744
-0.00302004
-0.0030854
-0.00314748
-0.00319684
-0.00321939
-0.00319454
-0.00309274
-0.00288093
-0.00252449
-0.00183094
9.46024e-05
0.00453435
0.00873143
0.0106643
-0.00326012
-0.00335582
-0.00339095
-0.00345742
-0.00354744
-0.00366653
-0.00381914
-0.0040095
-0.00424347
-0.00453021
-0.00488584
-0.00534149
-0.00596593
-0.00693539
-0.00860091
-0.010989
-0.0121026
-0.00776558
-0.000906274
0.00593078
-0.00385262
-0.00395874
-0.00399668
-0.00408062
-0.00420496
-0.00438161
-0.00462235
-0.00494085
-0.00535849
-0.00591041
-0.00665835
-0.00771865
-0.0093229
-0.0119417
-0.0166216
-0.0235957
-0.030011
-0.0267867
-0.0175361
-0.00519735
-0.00447595
-0.00458331
-0.0046023
-0.00468601
-0.00483109
-0.00505385
-0.00537
-0.00580259
-0.00638741
-0.0071842
-0.00829938
-0.00992901
-0.01248
-0.0166283
-0.0239402
-0.0344394
-0.0455208
-0.0443723
-0.0350111
-0.0191632
-0.00516103
-0.00527975
-0.00526195
-0.00533046
-0.00546568
-0.00569781
-0.00604961
-0.00655081
-0.00724561
-0.00820582
-0.00956045
-0.0115231
-0.0146088
-0.019423
-0.0277382
-0.0388376
-0.0513795
-0.0506153
-0.0427608
-0.0259875
-0.00598862
-0.00591283
-0.0057786
-0.00574742
-0.00584952
-0.00609248
-0.00648347
-0.00704012
-0.00780108
-0.00883292
-0.0102658
-0.0122713
-0.015413
-0.019862
-0.0275188
-0.0368969
-0.0463144
-0.0453913
-0.0396896
-0.0203117
-0.00647794
-0.00690667
-0.0066149
-0.00662616
-0.00662141
-0.00675197
-0.00703327
-0.00749832
-0.00818583
-0.0091435
-0.0104865
-0.0123076
-0.0150649
-0.0188598
-0.024782
-0.0312655
-0.037568
-0.0349858
-0.0283631
-0.000960423
-0.00985587
-0.0073407
-0.00671265
-0.00613794
-0.00607488
-0.00626854
-0.00666111
-0.00721734
-0.00795701
-0.00889345
-0.0101537
-0.0117829
-0.0141254
-0.0171518
-0.0214568
-0.0252637
-0.0279998
-0.0228674
-0.0104182
0.0338232
-0.0065583
-0.00956061
-0.00850461
-0.00853091
-0.00809096
-0.00787038
-0.00783268
-0.00801365
-0.00845715
-0.0091441
-0.010185
-0.0115909
-0.013758
-0.0164713
-0.0206741
-0.023735
-0.0250587
-0.0117929
0.0154707
0.0931552
-0.0317577
-0.0067278
-0.00522924
-0.00449574
-0.00431064
-0.0045482
-0.00508608
-0.00573222
-0.00658962
-0.00755133
-0.00889349
-0.0104767
-0.0126612
-0.0149271
-0.0171112
-0.0156371
-0.00709125
0.0262475
0.094731
0.227243
)
;

boundaryField
{
    movingWall
    {
        type            zeroGradient;
    }
    fixedWalls
    {
        type            zeroGradient;
    }
    frontAndBack
    {
        type            empty;
    }
}


// ************************************************************************* //
