/*--------------------------------*- C++ -*----------------------------------*\
  =========                 |
  \\      /  F ield         | OpenFOAM: The Open Source CFD Toolbox
   \\    /   O peration     | Website:  https://openfoam.org
    \\  /    A nd           | Version:  10
     \\/     M anipulation  |
\*---------------------------------------------------------------------------*/
FoamFile
{
    format      ascii;
    class       volVectorField;
    location    "7.95";
    object      U;
}
// * * * * * * * * * * * * * * * * * * * * * * * * * * * * * * * * * * * * * //

dimensions      [0 1 -1 0 0 0 0];

internalField   nonuniform List<vector> 
8000
(
(-7.61741e-05 0.0001013 -3.5308e-05)
(-0.000526387 0.000212008 1.6088e-06)
(-0.0012684 0.00024728 1.93907e-05)
(-0.00203147 0.000262419 2.86099e-05)
(-0.00283235 0.000274576 2.92196e-05)
(-0.00364977 0.000288557 2.418e-05)
(-0.00447459 0.000303502 1.48718e-05)
(-0.0052931 0.00031647 9.25811e-07)
(-0.0060822 0.000323623 -1.88149e-05)
(-0.00680714 0.000320407 -4.58456e-05)
(-0.00741951 0.000301643 -8.17514e-05)
(-0.00785683 0.000262189 -0.000127796)
(-0.00804522 0.000198771 -0.000184252)
(-0.00790648 0.000110148 -0.000249586)
(-0.0073708 -1.96263e-06 -0.000318514)
(-0.00639719 -0.000126599 -0.000381565)
(-0.00500576 -0.000240704 -0.00042431)
(-0.00334135 -0.000310453 -0.000428824)
(-0.00148282 -0.000294691 -0.000380689)
(-0.000247858 -9.84588e-05 -0.000199562)
(-0.000182701 0.000656986 -0.000114077)
(-0.000981783 0.00114368 -9.53704e-05)
(-0.00220879 0.00130604 -8.32072e-05)
(-0.00346923 0.00136949 -7.36272e-05)
(-0.00478099 0.0014056 -7.05405e-05)
(-0.00610576 0.00143496 -7.19514e-05)
(-0.00742332 0.00145637 -7.71205e-05)
(-0.0087086 0.00146014 -8.68782e-05)
(-0.00992403 0.00143261 -0.00010282)
(-0.0110163 0.0013575 -0.000127019)
(-0.0119136 0.00121681 -0.000161807)
(-0.0125244 0.000993129 -0.000209275)
(-0.0127427 0.000672809 -0.000270359)
(-0.0124604 0.000253707 -0.000344619)
(-0.0115793 -0.000245391 -0.000425767)
(-0.0100396 -0.00077635 -0.000500457)
(-0.00787332 -0.00125153 -0.000549241)
(-0.00529039 -0.00153931 -0.000547197)
(-0.00241066 -0.00147766 -0.000472755)
(-0.000442529 -0.000717957 -0.000211168)
(-0.000215798 0.00157929 -0.000157679)
(-0.00114169 0.00260919 -0.000149056)
(-0.00254918 0.00295314 -0.000139772)
(-0.00398625 0.00307781 -0.000129231)
(-0.00547687 0.00313359 -0.00012387)
(-0.00697864 0.00316388 -0.000122297)
(-0.00847057 0.00316886 -0.000124129)
(-0.00992706 0.00313183 -0.000130578)
(-0.0113093 0.00302776 -0.000143738)
(-0.0125616 0.00282599 -0.000166407)
(-0.0136073 0.00249253 -0.000201816)
(-0.0143477 0.00199415 -0.000253141)
(-0.0146622 0.00130546 -0.000322882)
(-0.0144153 0.000422983 -0.000411165)
(-0.0134763 -0.000617048 -0.000510477)
(-0.0117553 -0.00172411 -0.000605408)
(-0.0092637 -0.00272317 -0.000669567)
(-0.00623819 -0.00334195 -0.000668886)
(-0.00281447 -0.00323861 -0.000574395)
(-0.000493795 -0.00171344 -0.000244602)
(-0.000219191 0.00255258 -0.000188604)
(-0.00118201 0.00416136 -0.000188815)
(-0.00265064 0.00469097 -0.000182127)
(-0.00414664 0.00487401 -0.000171281)
(-0.00570217 0.00494822 -0.0001648)
(-0.00727643 0.00498194 -0.000161818)
(-0.00885329 0.00497785 -0.000162309)
(-0.0104127 0.00491341 -0.000167905)
(-0.0119214 0.00475317 -0.000181274)
(-0.013328 0.00445187 -0.000206117)
(-0.0145572 0.00395733 -0.000246994)
(-0.0155037 0.00321614 -0.00030877)
(-0.0160298 0.0021854 -0.00039563)
(-0.015969 0.000850838 -0.000509344)
(-0.015144 -0.000747668 -0.000646321)
(-0.0133972 -0.00249034 -0.000781099)
(-0.0106756 -0.00410552 -0.000878242)
(-0.00723039 -0.00514868 -0.000887378)
(-0.00320458 -0.00504547 -0.000765304)
(-0.00051157 -0.00266792 -0.000328722)
(-0.000209513 0.00357685 -0.000210519)
(-0.001171 0.00580272 -0.00021844)
(-0.00265361 0.0065301 -0.000214032)
(-0.00416616 0.00677797 -0.000203466)
(-0.00574851 0.0068793 -0.000197166)
(-0.00736418 0.00693073 -0.000194787)
(-0.00900529 0.00693969 -0.000196734)
(-0.0106615 0.0068798 -0.000205198)
(-0.0123104 0.00670668 -0.000223642)
(-0.0139107 0.00636076 -0.000256982)
(-0.0153933 0.00576906 -0.000311724)
(-0.0166503 0.00485078 -0.000395476)
(-0.0175245 0.00353012 -0.000515184)
(-0.017805 0.00176006 -0.000673762)
(-0.0172488 -0.000437111 -0.000878594)
(-0.0155903 -0.00290297 -0.00108611)
(-0.0126545 -0.00529307 -0.0012495)
(-0.00867789 -0.00693628 -0.00128851)
(-0.00378586 -0.00692665 -0.0011272)
(-0.000535395 -0.00358799 -0.000497758)
(-0.00019362 0.00461887 -0.000228438)
(-0.00113622 0.00748951 -0.000243646)
(-0.00261197 0.00842687 -0.000241509)
(-0.00412252 0.00874926 -0.000231745)
(-0.00571458 0.00889225 -0.000226594)
(-0.00735733 0.00898524 -0.000226309)
(-0.00905361 0.00904395 -0.000231856)
(-0.0108065 0.00904154 -0.000246194)
(-0.0126094 0.00892779 -0.000273908)
(-0.0144387 0.00863088 -0.000321654)
(-0.0162402 0.00805618 -0.000398743)
(-0.0179126 0.00708845 -0.000517289)
(-0.0192871 0.0056039 -0.000690554)
(-0.0201085 0.00349689 -0.000929933)
(-0.0200236 0.000734019 -0.00123178)
(-0.0186337 -0.00253973 -0.00158288)
(-0.0155711 -0.00591726 -0.00188589)
(-0.0109418 -0.00845499 -0.00201065)
(-0.00476888 -0.00875306 -0.00180422)
(-0.000606024 -0.0043929 -0.000820548)
(-0.000173296 0.00566518 -0.000246147)
(-0.00108602 0.00920461 -0.000269008)
(-0.00254133 0.0103641 -0.000269236)
(-0.00403481 0.0107708 -0.000260383)
(-0.00561917 0.0109711 -0.000256612)
(-0.00726977 0.0111327 -0.000258952)
(-0.00900188 0.0112849 -0.000269119)
(-0.0108352 0.0114058 -0.000291099)
(-0.0127847 0.0114455 -0.000331033)
(-0.0148527 0.0113257 -0.000398108)
(-0.0170142 0.0109345 -0.000505858)
(-0.0191918 0.0101213 -0.00067344)
(-0.0212229 0.00870073 -0.000925154)
(-0.0228198 0.00647793 -0.00128438)
(-0.0235335 0.00330962 -0.00176302)
(-0.0227796 -0.000775563 -0.0023688)
(-0.0198653 -0.00530772 -0.00295943)
(-0.0145813 -0.00918262 -0.00331867)
(-0.00660783 -0.0102398 -0.00310438)
(-0.000864493 -0.00502478 -0.00147523)
(-0.000148781 0.00670969 -0.000265712)
(-0.00102254 0.0109413 -0.000297108)
(-0.00244479 0.0123325 -0.000299616)
(-0.00390279 0.0128292 -0.000291153)
(-0.00545439 0.0130975 -0.000288108)
(-0.00708042 0.0133507 -0.000292508)
(-0.00880903 0.0136383 -0.00030705)
(-0.0106787 0.0139518 -0.000337051)
(-0.0127306 0.0142516 -0.000390658)
(-0.0150023 0.0144659 -0.000480444)
(-0.0175135 0.0144793 -0.000625948)
(-0.0202398 0.0141191 -0.00085694)
(-0.0230654 0.0131438 -0.00121584)
(-0.0257179 0.0112485 -0.00175405)
(-0.0276924 0.00811764 -0.00251861)
(-0.0281645 0.00355917 -0.00352653)
(-0.0260921 -0.00219403 -0.00470798)
(-0.0205868 -0.00790544 -0.00563664)
(-0.0103934 -0.010651 -0.00559856)
(-0.00176105 -0.00542479 -0.0028961)
(-0.000121062 0.00775027 -0.000288656)
(-0.000949596 0.0126973 -0.000329854)
(-0.00232711 0.0143239 -0.000334257)
(-0.00372691 0.0149058 -0.000324908)
(-0.0052112 0.015241 -0.000320924)
(-0.00676439 0.0155963 -0.000325584)
(-0.00842604 0.0160494 -0.000342774)
(-0.0102525 0.0166148 -0.000379345)
(-0.0123121 0.0172779 -0.000445834)
(-0.0146832 0.0179938 -0.000558944)
(-0.0174449 0.0186727 -0.000745656)
(-0.0206543 0.0191573 -0.00104958)
(-0.0243004 0.0191926 -0.0015387)
(-0.0282218 0.0183985 -0.00230775)
(-0.0319847 0.0162709 -0.00346375)
(-0.0347271 0.0122402 -0.00509136)
(-0.0348559 0.00583573 -0.00717331)
(-0.0303534 -0.00244049 -0.00930924)
(-0.0183078 -0.00886648 -0.00995268)
(-0.00440776 -0.00578104 -0.00601373)
(-9.3298e-05 0.00879191 -0.00031691)
(-0.000877669 0.0144782 -0.000369511)
(-0.00220345 0.0163323 -0.000375051)
(-0.00352011 0.0169781 -0.000362657)
(-0.00489428 0.0173587 -0.000354904)
(-0.00631096 0.0178039 -0.000356599)
(-0.00781751 0.0184273 -0.000372992)
(-0.00948353 0.0192771 -0.000412523)
(-0.0113984 0.0203795 -0.000488066)
(-0.0136758 0.0217424 -0.000620284)
(-0.0164548 0.0233439 -0.000843538)
(-0.0198925 0.0251074 -0.00121553)
(-0.0241384 0.0268631 -0.0018293)
(-0.0292716 0.0282764 -0.00282049)
(-0.0351814 0.0287158 -0.00435615)
(-0.0413077 0.0269908 -0.00660075)
(-0.0459261 0.0209963 -0.00964263)
(-0.0450821 0.00886409 -0.0130693)
(-0.0329859 -0.00549015 -0.0149068)
(-0.0105066 -0.00755158 -0.0111277)
(-7.25787e-05 0.00985405 -0.000353832)
(-0.000828972 0.0163044 -0.000419684)
(-0.00210703 0.0183595 -0.000425067)
(-0.00331736 0.0190224 -0.000406365)
(-0.00453375 0.0193971 -0.000390635)
(-0.00573843 0.0198864 -0.000384569)
(-0.00698134 0.0206448 -0.000394822)
(-0.00833555 0.0217616 -0.000431154)
(-0.00989681 0.0233174 -0.000508044)
(-0.011794 0.025398 -0.000648243)
(-0.0142008 0.0280933 -0.000889042)
(-0.0173482 0.0314841 -0.0012913)
(-0.0215485 0.0356095 -0.00194126)
(-0.0272299 0.0403174 -0.00292424)
(-0.0349386 0.0448179 -0.00428622)
(-0.0450969 0.0466581 -0.00604514)
(-0.056291 0.0404116 -0.00854045)
(-0.0627263 0.0197672 -0.0116954)
(-0.05365 -0.00986239 -0.0137952)
(-0.0197999 -0.0189676 -0.0138568)
(-7.32249e-05 0.0109847 -0.000405975)
(-0.000845226 0.018228 -0.00048795)
(-0.00209853 0.0204313 -0.000491974)
(-0.0031855 0.0210301 -0.000462615)
(-0.004196 0.0213091 -0.000432738)
(-0.00510799 0.0217525 -0.000412102)
(-0.0059699 0.0225572 -0.000408935)
(-0.00684446 0.023853 -0.000433766)
(-0.00781008 0.0257797 -0.000501393)
(-0.00897381 0.0285127 -0.000632695)
(-0.0104906 0.0322828 -0.000857539)
(-0.0125916 0.0373658 -0.00121142)
(-0.0156869 0.0440505 -0.00168712)
(-0.0205857 0.0522561 -0.00209021)
(-0.0287933 0.060557 -0.00197209)
(-0.0425823 0.0638605 -0.000813393)
(-0.0632308 0.0524696 0.000462449)
(-0.0827182 0.0152321 0.0014257)
(-0.0763116 -0.0364313 0.0033838)
(-0.0278393 -0.0520386 -0.00667922)
(-0.000121531 0.0122654 -0.00048355)
(-0.000995394 0.020312 -0.000581181)
(-0.00227342 0.0225518 -0.000577411)
(-0.00323027 0.0229523 -0.000529168)
(-0.00399175 0.0230072 -0.00047788)
(-0.00453344 0.0232773 -0.000436554)
(-0.00490286 0.0239863 -0.000413676)
(-0.00513883 0.0252931 -0.000418625)
(-0.00527474 0.0273818 -0.000464893)
(-0.00534854 0.0304944 -0.000565113)
(-0.00543514 0.0349801 -0.000726801)
(-0.00568079 0.0412442 -0.000914671)
(-0.00656559 0.0497227 -0.000931012)
(-0.00938652 0.0600588 -4.87785e-05)
(-0.017485 0.0699143 0.00289177)
(-0.0369099 0.0712262 0.00907928)
(-0.0737431 0.0500895 0.0178602)
(-0.107106 -0.0157577 0.0283464)
(-0.0964081 -0.100408 0.0291626)
(-0.034145 -0.113553 0.00460227)
(-0.000282692 0.0139102 -0.000621811)
(-0.00143031 0.0228458 -0.000753882)
(-0.00280436 0.0250161 -0.000749024)
(-0.0036086 0.025063 -0.000674035)
(-0.00406316 0.0246963 -0.000582996)
(-0.00416596 0.0245714 -0.000499891)
(-0.00396397 0.0249429 -0.000438699)
(-0.00345755 0.0259829 -0.000411219)
(-0.002622 0.0278884 -0.000426649)
(-0.00139185 0.0309127 -0.000484069)
(0.000267544 0.0354684 -0.000564718)
(0.00235887 0.0419777 -0.000539079)
(0.00429657 0.0508907 1.22583e-05)
(0.00436133 0.0615611 0.00240903)
(-0.00342605 0.0710552 0.00857836)
(-0.0299687 0.0686267 0.0205862)
(-0.0837714 0.0296557 0.0378258)
(-0.122252 -0.0824008 0.0482478)
(-0.113276 -0.18935 0.0313653)
(-0.043355 -0.197748 0.00239271)
(-0.000603263 0.0164175 -0.000833797)
(-0.00220187 0.0256683 -0.000947949)
(-0.00378573 0.0272242 -0.000909703)
(-0.00449159 0.02646 -0.000778342)
(-0.00466463 0.0254793 -0.000643281)
(-0.00429845 0.0248942 -0.000523292)
(-0.00347027 0.024878 -0.000432045)
(-0.00216441 0.0255242 -0.000378558)
(-0.000309658 0.0269728 -0.000370642)
(0.0022891 0.0294584 -0.000391385)
(0.0057931 0.0333555 -0.000417178)
(0.0103846 0.0390131 -0.000276497)
(0.0155112 0.046865 0.000652998)
(0.0194354 0.0562454 0.00389229)
(0.0148633 0.0647213 0.0124393)
(-0.0106617 0.0575011 0.0279085)
(-0.0682244 -0.00123993 0.0456858)
(-0.105577 -0.142071 0.0413826)
(-0.120959 -0.249872 0.016567)
(-0.0477339 -0.282243 -0.0130008)
(-0.0019617 0.0188919 -0.00134792)
(-0.00488417 0.0303628 -0.00157924)
(-0.00622081 0.0314757 -0.0014843)
(-0.00639819 0.0301222 -0.00126198)
(-0.00582502 0.0281284 -0.00100285)
(-0.00475452 0.0264839 -0.000764749)
(-0.00324884 0.0254216 -0.000576853)
(-0.001226 0.0250341 -0.000453477)
(0.00150166 0.0254278 -0.000394212)
(0.00525616 0.0267326 -0.000403228)
(0.010284 0.0292119 -0.000426406)
(0.0170339 0.0330167 -0.000364022)
(0.0250843 0.0385038 0.000551218)
(0.0338266 0.0448441 0.00345758)
(0.0361274 0.0513747 0.0116664)
(0.0263742 0.0429296 0.0258684)
(-0.0211716 -0.0206496 0.0385643)
(-0.0621533 -0.155762 0.0291036)
(-0.111488 -0.279061 0.0101359)
(-0.0429187 -0.348527 -0.0303917)
(-0.00131532 0.0303633 -0.00236711)
(-0.00494411 0.0341228 -0.00226227)
(-0.00834425 0.0325916 -0.00202282)
(-0.00868456 0.0286641 -0.00151663)
(-0.00819374 0.0257852 -0.00112966)
(-0.00654949 0.0237478 -0.000793704)
(-0.00420039 0.0224286 -0.000541541)
(-0.00116234 0.0216332 -0.000384059)
(0.00265099 0.0214094 -0.000332103)
(0.00758763 0.0216754 -0.000404185)
(0.0138789 0.0226866 -0.000556432)
(0.0221981 0.0242893 -0.000714572)
(0.0320185 0.0267123 -0.000245104)
(0.0442879 0.028681 0.00152806)
(0.0517402 0.0302292 0.00715275)
(0.0579293 0.0218471 0.0174533)
(0.0247721 -0.0290992 0.0262271)
(-0.0114707 -0.14144 0.0237814)
(-0.0891944 -0.281604 0.00490687)
(-0.0335927 -0.387995 -0.044952)
(-0.0127772 0.0277572 -0.00313191)
(-0.0214165 0.0486924 -0.00394089)
(-0.0153681 0.0444362 -0.00377498)
(-0.013522 0.0394619 -0.00317632)
(-0.00918702 0.0335284 -0.00232414)
(-0.00450196 0.0286686 -0.00156311)
(0.000446103 0.0248894 -0.000988979)
(0.00574763 0.0219748 -0.000617868)
(0.0113878 0.0199173 -0.000463934)
(0.0179762 0.0183856 -0.000573031)
(0.0253157 0.0175518 -0.000837259)
(0.0346265 0.016907 -0.00126029)
(0.0442501 0.0169462 -0.00139756)
(0.057499 0.0158713 -0.000745588)
(0.0637571 0.0144641 0.00205671)
(0.0782663 0.00610997 0.00871178)
(0.0551561 -0.0254553 0.014033)
(0.0465514 -0.114054 0.0184006)
(-0.0517494 -0.26277 -0.000963804)
(-0.0128544 -0.399179 -0.055986)
(-0.0466046 0.0877043 -0.0125194)
(-0.0298482 0.0398034 -0.00893057)
(-0.0205317 0.0334777 -0.00679164)
(-0.00124391 0.0264034 -0.00477878)
(0.0149751 0.020005 -0.00343214)
(0.0311636 0.0157029 -0.00239843)
(0.0452117 0.0129497 -0.00165233)
(0.0584782 0.0108198 -0.00118184)
(0.0697477 0.00945323 -0.000924211)
(0.0816922 0.00817152 -0.000933152)
(0.0912414 0.00767766 -0.00114336)
(0.104231 0.00676491 -0.00160807)
(0.112294 0.0065756 -0.0020585)
(0.130213 0.0047191 -0.00226056)
(0.131542 0.0014002 -0.00166193)
(0.156648 -0.00855496 0.00175101)
(0.130902 -0.0344494 0.00553766)
(0.154283 -0.100184 0.010978)
(0.0315866 -0.236103 -0.00330342)
(0.0356636 -0.366157 -0.0659835)
(0.117539 0.11228 -0.0111988)
(0.144144 0.0598842 -0.0118661)
(0.21602 0.0394984 -0.0117538)
(0.260824 0.0262077 -0.0105864)
(0.293406 0.0173741 -0.00915417)
(0.320999 0.0114003 -0.00793738)
(0.341474 0.00769008 -0.00680937)
(0.361099 0.00514103 -0.00594714)
(0.373676 0.00365738 -0.00515185)
(0.390191 0.00246323 -0.00461074)
(0.396894 0.00191771 -0.00417611)
(0.414281 0.00133482 -0.00390564)
(0.414426 0.0010774 -0.00381832)
(0.436328 0.000405737 -0.00354552)
(0.424436 -0.000966748 -0.00343996)
(0.450548 -0.00460236 -0.00255365)
(0.406342 -0.0132022 -0.00178649)
(0.417454 -0.032483 -0.00163352)
(0.250186 -0.0723706 -0.0096017)
(0.166861 -0.138052 -0.0760155)
(-0.000127621 0.000151381 -0.000116549)
(-0.000892927 0.000380221 -7.8203e-05)
(-0.00216097 0.000458996 -5.15736e-05)
(-0.00345573 0.000484409 -3.68383e-05)
(-0.00479104 0.000496714 -3.83591e-05)
(-0.00612958 0.000508536 -5.2471e-05)
(-0.00745495 0.000519303 -7.80171e-05)
(-0.00874437 0.000524229 -0.000116706)
(-0.00996072 0.000517049 -0.000171621)
(-0.0110502 0.00049041 -0.000246399)
(-0.0119402 0.000436098 -0.000344584)
(-0.0125395 0.000346118 -0.000468566)
(-0.0127421 0.000215307 -0.000617976)
(-0.0124373 4.12327e-05 -0.000787843)
(-0.011527 -0.000171288 -0.000964099)
(-0.00995613 -0.000399859 -0.00112389)
(-0.00775828 -0.000601132 -0.00123345)
(-0.00514532 -0.000706518 -0.00125269)
(-0.0022583 -0.000625495 -0.00114373)
(-0.000369583 -0.000197582 -0.000696742)
(-0.000372565 0.00102991 -0.000281282)
(-0.0019064 0.00201127 -0.000289892)
(-0.00422739 0.0023566 -0.000273225)
(-0.00659611 0.00246225 -0.000255036)
(-0.0090137 0.00248877 -0.000251002)
(-0.0114054 0.00248751 -0.000259969)
(-0.0137289 0.00246053 -0.000282123)
(-0.0159352 0.00239243 -0.000320556)
(-0.0179567 0.00226106 -0.000379883)
(-0.0197034 0.00204034 -0.000465511)
(-0.0210601 0.0017023 -0.000582839)
(-0.0218864 0.00122092 -0.000735742)
(-0.0220271 0.000577648 -0.000924287)
(-0.0213265 -0.000225993 -0.00114504)
(-0.0196474 -0.00115132 -0.00137659)
(-0.0169177 -0.00210713 -0.00158675)
(-0.0132051 -0.00292641 -0.00172765)
(-0.00883476 -0.00334788 -0.0017412)
(-0.0040405 -0.0030253 -0.00156373)
(-0.000766376 -0.00135308 -0.000880757)
(-0.000471273 0.00251638 -0.000377204)
(-0.00233902 0.00457517 -0.000415286)
(-0.00511913 0.00529412 -0.000405251)
(-0.00793745 0.00549858 -0.000384045)
(-0.0107982 0.00551904 -0.000374534)
(-0.0136145 0.00546091 -0.00037734)
(-0.0163379 0.00533311 -0.000393762)
(-0.0189143 0.00510953 -0.000428157)
(-0.0212702 0.00474972 -0.000486751)
(-0.023308 0.004205 -0.000577064)
(-0.0249021 0.0034231 -0.000706977)
(-0.0258989 0.00235568 -0.00088327)
(-0.0261197 0.000970487 -0.00110969)
(-0.0253691 -0.000725375 -0.00138152)
(-0.0234671 -0.00265965 -0.00167555)
(-0.0203006 -0.00465089 -0.00195158)
(-0.0159121 -0.00636471 -0.00214349)
(-0.0106716 -0.0072648 -0.00216826)
(-0.00485463 -0.0066318 -0.00193693)
(-0.000898416 -0.00323573 -0.00105717)
(-0.000500884 0.00409286 -0.000450547)
(-0.00250141 0.00730215 -0.000514477)
(-0.00547686 0.00840336 -0.000510836)
(-0.00848374 0.00869813 -0.000488369)
(-0.011537 0.00870539 -0.000475855)
(-0.0145501 0.00858873 -0.000475527)
(-0.0174808 0.00836505 -0.000489903)
(-0.0202818 0.00799878 -0.000524841)
(-0.0228862 0.00743188 -0.000588615)
(-0.0252014 0.00659196 -0.000691693)
(-0.027101 0.00539815 -0.000845955)
(-0.0284192 0.00377175 -0.00106299)
(-0.0289494 0.00165668 -0.00135149)
(-0.0284511 -0.000950071 -0.00171267)
(-0.0266633 -0.00396954 -0.0021233)
(-0.0233657 -0.00713487 -0.0025251)
(-0.0185107 -0.009925 -0.00282337)
(-0.012484 -0.0114591 -0.00288637)
(-0.00559664 -0.0105336 -0.00257732)
(-0.000964542 -0.00515537 -0.00138127)
(-0.000501626 0.00574974 -0.000508503)
(-0.00255178 0.0101829 -0.000596055)
(-0.00561999 0.0116882 -0.000598553)
(-0.00872265 0.0120819 -0.000576425)
(-0.0118864 0.0120869 -0.000563921)
(-0.0150315 0.011931 -0.000564943)
(-0.0181287 0.0116421 -0.000583472)
(-0.0211457 0.0111772 -0.000627326)
(-0.0240315 0.0104617 -0.000707603)
(-0.0267074 0.00939757 -0.000838973)
(-0.0290538 0.00786871 -0.00103955)
(-0.030896 0.00575143 -0.00132922)
(-0.0319905 0.00293807 -0.00172587)
(-0.0320335 -0.000622157 -0.002238)
(-0.0306423 -0.00484548 -0.00285187)
(-0.0274176 -0.0094258 -0.00348313)
(-0.0221324 -0.0136269 -0.00399284)
(-0.0151226 -0.0161092 -0.0041564)
(-0.00669509 -0.0149734 -0.00372461)
(-0.00104959 -0.00722055 -0.00195096)
(-0.000491986 0.0074414 -0.0005605)
(-0.00256199 0.0131558 -0.000671364)
(-0.00568803 0.0150886 -0.000680231)
(-0.00885715 0.0155961 -0.000659686)
(-0.0121071 0.0156207 -0.000649374)
(-0.0153683 0.0154615 -0.000655091)
(-0.0186295 0.0151623 -0.000682655)
(-0.0218806 0.0146768 -0.000742448)
(-0.0250958 0.0139162 -0.000849411)
(-0.028222 0.0127569 -0.00102418)
(-0.03116 0.0110411 -0.00129408)
(-0.0337396 0.00858323 -0.00169281)
(-0.0356929 0.00519302 -0.00225568)
(-0.0366214 0.000726742 -0.00300802)
(-0.0360028 -0.00479984 -0.00395447)
(-0.0331967 -0.011097 -0.00501416)
(-0.0276252 -0.0172187 -0.00595039)
(-0.0193989 -0.0212391 -0.00636891)
(-0.00863274 -0.0201749 -0.00575869)
(-0.00124382 -0.00953836 -0.00291969)
(-0.000477719 0.00915446 -0.00061428)
(-0.00255686 0.0162038 -0.000750213)
(-0.00572839 0.018588 -0.000765773)
(-0.00895046 0.0192259 -0.000746948)
(-0.0122714 0.019295 -0.00073919)
(-0.0156336 0.0191757 -0.000750575)
(-0.0190484 0.0189346 -0.000789237)
(-0.0225347 0.0185291 -0.000868826)
(-0.0261026 0.0178628 -0.0010094)
(-0.0297409 0.0167906 -0.00123995)
(-0.0333935 0.015112 -0.00160153)
(-0.0369234 0.0125673 -0.00214984)
(-0.0400617 0.00884995 -0.00295181)
(-0.0423523 0.00366132 -0.00407412)
(-0.0431324 -0.00317262 -0.00557419)
(-0.0414449 -0.011446 -0.00738646)
(-0.0361697 -0.0201662 -0.00916112)
(-0.0267696 -0.0268149 -0.0101947)
(-0.0125673 -0.0266581 -0.00938041)
(-0.00184469 -0.0125854 -0.00462536)
(-0.000459969 0.0108865 -0.000674891)
(-0.0025433 0.0193263 -0.000839232)
(-0.00575315 0.0221838 -0.000861361)
(-0.00901258 0.0229633 -0.000842831)
(-0.01238 0.0230968 -0.000835747)
(-0.0158101 0.0230572 -0.000850936)
(-0.0193396 0.0229447 -0.000899332)
(-0.0230231 0.022731 -0.000998564)
(-0.0269179 0.0223252 -0.00117504)
(-0.0310741 0.0215742 -0.00146866)
(-0.0355105 0.020246 -0.0019398)
(-0.0401733 0.0180099 -0.00267766)
(-0.044866 0.0144261 -0.00380562)
(-0.0491598 0.00897569 -0.00547209)
(-0.0522996 0.00118669 -0.00780204)
(-0.0530929 -0.00907914 -0.0108276)
(-0.0497449 -0.0212244 -0.0141077)
(-0.0401484 -0.0325893 -0.0163281)
(-0.0214054 -0.0357536 -0.0153578)
(-0.00377128 -0.0179392 -0.00776042)
(-0.000440155 0.012639 -0.000746706)
(-0.00252711 0.0225279 -0.000944219)
(-0.00576974 0.0258728 -0.000972056)
(-0.00904404 0.0267916 -0.000950533)
(-0.0124179 0.0269941 -0.000939687)
(-0.0158571 0.0270602 -0.000953579)
(-0.0194243 0.0271355 -0.00100628)
(-0.0232129 0.0272213 -0.00111973)
(-0.0273362 0.0272519 -0.00132742)
(-0.0319241 0.0270929 -0.0016821)
(-0.0371064 0.0265136 -0.00226794)
(-0.0429778 0.025148 -0.00321825)
(-0.0495312 0.0224535 -0.00473417)
(-0.0565519 0.0176952 -0.00708045)
(-0.0634896 0.00998356 -0.0105212)
(-0.0692125 -0.00167923 -0.0150989)
(-0.0711156 -0.0182395 -0.0200341)
(-0.0639595 -0.0385897 -0.0233105)
(-0.040315 -0.0513649 -0.0221157)
(-0.00897676 -0.0299562 -0.0131213)
(-0.000422576 0.0144216 -0.000835297)
(-0.00252236 0.0258216 -0.0010723)
(-0.00579768 0.0296524 -0.00110406)
(-0.0090585 0.0306852 -0.0010741)
(-0.0123827 0.0309346 -0.00105215)
(-0.0157443 0.0311042 -0.00105598)
(-0.0192293 0.0313983 -0.00110291)
(-0.022968 0.0318654 -0.00121889)
(-0.0271297 0.0324907 -0.00144389)
(-0.0319318 0.0331977 -0.0018426)
(-0.037642 0.0338163 -0.00252272)
(-0.0445722 0.0340309 -0.00366284)
(-0.0530532 0.033319 -0.00553917)
(-0.0633935 0.0308574 -0.00850023)
(-0.0757659 0.0252139 -0.0127496)
(-0.0895673 0.0134553 -0.0177379)
(-0.100948 -0.0100509 -0.0214625)
(-0.0992388 -0.048756 -0.021538)
(-0.0710602 -0.0839418 -0.0200885)
(-0.0188191 -0.0587656 -0.0185473)
(-0.00041687 0.0162608 -0.000949559)
(-0.00255885 0.0292366 -0.00123401)
(-0.00588061 0.0335242 -0.00126645)
(-0.00909828 0.0346096 -0.00121998)
(-0.012304 0.0348441 -0.00117635)
(-0.0154754 0.0350713 -0.00115749)
(-0.0187166 0.0355656 -0.00118365)
(-0.0221847 0.0364382 -0.00128347)
(-0.0260916 0.0377524 -0.00150043)
(-0.0307283 0.0395356 -0.00190502)
(-0.0364941 0.0417565 -0.00261493)
(-0.0439322 0.0442794 -0.00381836)
(-0.0537919 0.0467958 -0.00575342)
(-0.0671514 0.0485156 -0.00849156)
(-0.0853265 0.0468374 -0.0112936)
(-0.10843 0.0343769 -0.0115074)
(-0.129964 -0.00351335 -0.00529366)
(-0.133175 -0.0761126 0.00490457)
(-0.10092 -0.145537 0.00245211)
(-0.0294937 -0.119492 -0.0153191)
(-0.000443121 0.0182201 -0.00110544)
(-0.00269456 0.0328491 -0.00144953)
(-0.00610143 0.0375323 -0.00147981)
(-0.00924906 0.0385615 -0.00140626)
(-0.0122584 0.0386627 -0.00132577)
(-0.0151088 0.0388376 -0.00126662)
(-0.0179151 0.0394388 -0.00125201)
(-0.0208429 0.0406496 -0.00131127)
(-0.0241165 0.0426306 -0.00148629)
(-0.0280558 0.0455546 -0.00184036)
(-0.0331313 0.0496066 -0.00246723)
(-0.040029 0.0549429 -0.00346676)
(-0.0497872 0.0615329 -0.00474801)
(-0.064102 0.0682374 -0.00533106)
(-0.0850044 0.0696183 -0.00219632)
(-0.113085 0.0512269 0.0101657)
(-0.141709 -0.00935402 0.0338634)
(-0.148871 -0.119984 0.0521837)
(-0.11577 -0.216902 0.0338851)
(-0.0353179 -0.203492 -0.00112161)
(-0.000533363 0.0203826 -0.001326)
(-0.00301202 0.0366853 -0.0017342)
(-0.00658166 0.0415899 -0.00174705)
(-0.00965106 0.0423719 -0.00162847)
(-0.0123925 0.04218 -0.00149523)
(-0.0147841 0.0421581 -0.00138061)
(-0.0169498 0.0427122 -0.0013076)
(-0.0190426 0.0440858 -0.00130155)
(-0.0212526 0.0465348 -0.00139646)
(-0.0238496 0.0503756 -0.0016291)
(-0.0272572 0.0560155 -0.00202051)
(-0.0321215 0.0638645 -0.00244716)
(-0.0394956 0.073976 -0.00218471)
(-0.0514155 0.0841863 0.00135605)
(-0.070716 0.0858044 0.0136145)
(-0.0995745 0.058858 0.041391)
(-0.13486 -0.0202613 0.0788547)
(-0.144849 -0.155483 0.0879204)
(-0.116746 -0.267956 0.0447514)
(-0.0343204 -0.284917 0.00625236)
(-0.000789398 0.0230491 -0.00168327)
(-0.00376276 0.0412896 -0.00220596)
(-0.00759441 0.046335 -0.00221224)
(-0.0105138 0.0466748 -0.00203068)
(-0.0128605 0.0458813 -0.00180554)
(-0.0146542 0.0453115 -0.00159083)
(-0.0160149 0.0454523 -0.00141873)
(-0.0170431 0.0466015 -0.00131587)
(-0.0178509 0.0490764 -0.001302)
(-0.0185874 0.0532828 -0.0013748)
(-0.0195249 0.059775 -0.00146216)
(-0.0210789 0.0690438 -0.00115361)
(-0.0241363 0.0810912 0.000914558)
(-0.0307375 0.0926655 0.00871331)
(-0.0451344 0.0937408 0.0290364)
(-0.0715755 0.0617753 0.0666048)
(-0.11146 -0.026287 0.103524)
(-0.11878 -0.177264 0.0896098)
(-0.10893 -0.302474 0.0348478)
(-0.0272009 -0.359045 -0.00324801)
(-0.00117084 0.0266256 -0.00219028)
(-0.00471495 0.0457661 -0.00274093)
(-0.00909102 0.050074 -0.00268641)
(-0.0120515 0.0493092 -0.00239158)
(-0.0141132 0.0477765 -0.00206896)
(-0.0152461 0.0467131 -0.00176153)
(-0.0156412 0.0464816 -0.00150149)
(-0.0153891 0.0472954 -0.00130966)
(-0.0145242 0.0494499 -0.00119724)
(-0.0130214 0.0533607 -0.00112367)
(-0.0109503 0.059646 -0.00096797)
(-0.00830833 0.0687013 -0.000148625)
(-0.00576369 0.0806594 0.00302049)
(-0.00461247 0.0919178 0.0128353)
(-0.010235 0.0936017 0.0364388)
(-0.0265026 0.0622093 0.074048)
(-0.0628896 -0.0250416 0.100811)
(-0.065908 -0.177178 0.0713958)
(-0.0894857 -0.316068 0.0257601)
(-0.0131771 -0.418305 -0.0185407)
(-0.00326399 0.0298502 -0.00320976)
(-0.00902839 0.0536599 -0.00401906)
(-0.012886 0.0577642 -0.0038845)
(-0.0150079 0.0562955 -0.00344691)
(-0.0159167 0.0531648 -0.00290063)
(-0.0160239 0.0504678 -0.00236591)
(-0.0153963 0.0486922 -0.00190394)
(-0.013965 0.0480713 -0.00154731)
(-0.0115822 0.0488517 -0.00129894)
(-0.00797638 0.0513291 -0.00112869)
(-0.00304885 0.0560406 -0.000886954)
(0.00378196 0.0632524 -3.44594e-05)
(0.0120316 0.0731312 0.0030372)
(0.0219223 0.0824826 0.0115062)
(0.0270756 0.0855145 0.031963)
(0.0300636 0.0608843 0.0624007)
(0.00252187 -0.016048 0.0789083)
(-0.0014071 -0.14821 0.0535762)
(-0.057713 -0.308183 0.0196176)
(0.00649656 -0.455897 -0.0322204)
(-0.00135125 0.0444433 -0.00517532)
(-0.00764937 0.057192 -0.00567764)
(-0.0160329 0.0575892 -0.00518995)
(-0.0184768 0.0528289 -0.00423792)
(-0.0198281 0.049237 -0.00346317)
(-0.0192697 0.0466111 -0.00273928)
(-0.0175127 0.0448811 -0.00213191)
(-0.0145708 0.0439276 -0.00167033)
(-0.010387 0.0439186 -0.00138317)
(-0.00460883 0.0449308 -0.0012548)
(0.00298056 0.0475583 -0.00117481)
(0.0133185 0.0518205 -0.000774828)
(0.0258652 0.0578199 0.00120598)
(0.0425732 0.0630545 0.00657)
(0.0553321 0.0639945 0.0198133)
(0.0741683 0.0474776 0.0406373)
(0.0563458 -0.0114478 0.0511119)
(0.0572066 -0.111228 0.0399482)
(-0.0198465 -0.283812 0.0134947)
(0.0335958 -0.47011 -0.0442881)
(-0.012426 0.0350966 -0.00608377)
(-0.0237401 0.0782824 -0.00796138)
(-0.0211758 0.0763948 -0.00805056)
(-0.0249623 0.0704822 -0.00713113)
(-0.0239631 0.0625532 -0.00567813)
(-0.0212435 0.0558355 -0.00428477)
(-0.0167866 0.0504147 -0.00316009)
(-0.0108961 0.0461481 -0.00235398)
(-0.00380877 0.0430989 -0.00191737)
(0.00498075 0.0409806 -0.00182749)
(0.015156 0.0401738 -0.00202905)
(0.0279957 0.0403125 -0.00230547)
(0.0419197 0.0420316 -0.00184227)
(0.0611709 0.0428979 0.000598676)
(0.0738768 0.0425697 0.00673497)
(0.100285 0.032335 0.0196397)
(0.0891103 -0.00299299 0.0240921)
(0.113208 -0.0721453 0.024677)
(0.0383839 -0.253306 0.00779919)
(0.0777665 -0.461376 -0.055265)
(-0.0763023 0.0993721 -0.0199594)
(-0.0611941 0.0602101 -0.0160452)
(-0.0604098 0.059339 -0.0128562)
(-0.0375385 0.0513975 -0.0100424)
(-0.0182132 0.0434193 -0.00807128)
(0.00326674 0.0375385 -0.00639417)
(0.023194 0.0333237 -0.00511337)
(0.0431869 0.0297332 -0.00419233)
(0.0610916 0.0272058 -0.0036054)
(0.0803957 0.0248212 -0.00340605)
(0.0963792 0.023611 -0.00356018)
(0.117125 0.0222312 -0.00405233)
(0.130548 0.0219004 -0.00464345)
(0.158262 0.0210421 -0.00437183)
(0.164628 0.017002 -0.00323311)
(0.205134 0.00961452 0.00162101)
(0.189891 -0.0212805 0.00685886)
(0.233019 -0.0733191 0.00803761)
(0.155513 -0.233899 0.00277894)
(0.150464 -0.413757 -0.0659821)
(0.119094 0.140169 -0.0171034)
(0.151453 0.0855644 -0.0188766)
(0.228668 0.0631284 -0.0190578)
(0.283432 0.0476418 -0.0177553)
(0.32457 0.0367381 -0.0159924)
(0.362555 0.0286664 -0.0144393)
(0.390999 0.023046 -0.0129063)
(0.421792 0.0187824 -0.0117587)
(0.441006 0.015746 -0.0105298)
(0.469138 0.0133471 -0.00988371)
(0.480602 0.011523 -0.00891428)
(0.509859 0.0102459 -0.00891616)
(0.513199 0.00895357 -0.00801128)
(0.546626 0.00806379 -0.00862651)
(0.538746 0.00617198 -0.0068885)
(0.574666 0.00239075 -0.00795819)
(0.541882 -0.006029 -0.00431406)
(0.555471 -0.0255995 -0.0095785)
(0.425157 -0.0668688 -0.0110461)
(0.302619 -0.144309 -0.079164)
(-0.0001399 0.00014498 -0.000179774)
(-0.00101877 0.000417813 -0.000200017)
(-0.00248532 0.000514498 -0.000190199)
(-0.00397433 0.000543416 -0.000182809)
(-0.00549885 0.000553726 -0.000189687)
(-0.00701538 0.000561784 -0.00021116)
(-0.00850588 0.000567468 -0.000248343)
(-0.0099452 0.000565396 -0.000304234)
(-0.0112925 0.000548427 -0.000382909)
(-0.012489 0.000508149 -0.000488794)
(-0.0134559 0.000435155 -0.000625824)
(-0.0140941 0.000320327 -0.000796067)
(-0.0142886 0.00015777 -0.000997783)
(-0.0139171 -5.71038e-05 -0.00122305)
(-0.0128708 -0.000315151 -0.0014538)
(-0.011087 -0.000589488 -0.00166255)
(-0.00860101 -0.000826297 -0.00181107)
(-0.00565395 -0.000939764 -0.00185562)
(-0.00241733 -0.000815624 -0.0017425)
(-0.000360514 -0.000265662 -0.00117351)
(-0.000444426 0.00110152 -0.000340868)
(-0.00228154 0.00226653 -0.000425765)