/*--------------------------------*- C++ -*----------------------------------*\
  =========                 |
  \\      /  F ield         | OpenFOAM: The Open Source CFD Toolbox
   \\    /   O peration     | Website:  https://openfoam.org
    \\  /    A nd           | Version:  10
     \\/     M anipulation  |
\*---------------------------------------------------------------------------*/
FoamFile
{
    format      ascii;
    class       volScalarField;
    location    "3.875";
    object      p;
}
// * * * * * * * * * * * * * * * * * * * * * * * * * * * * * * * * * * * * * //

dimensions      [0 2 -2 0 0 0 0];

internalField   nonuniform List<scalar> 
496
(
33.1914
32.6828
28.571
22.6359
34.456
33.9197
28.8431
22.6841
39.4264
36.4314
28.1523
17.6129
45.7822
42.896
40.4593
24.5899
14.3763
5.2713
13.678
4.75552
1.72472
-2.49988
-23.3878
-52.3288
-1.75945
-6.37095
-8.734
-10.0393
-3.43311
-8.57469
-10.8092
-12.2215
2.85274
1.25125
-5.73448
-11.1284
-21.2739
3.04963
-4.07836
-10.3109
-10.8408
-11.4953
-11.8605
-12.1654
-12.8229
-13.824
-14.6736
-14.7568
-14.109
-12.6289
-10.9675
-9.51485
-8.70245
-8.20787
-7.31288
-6.40205
-5.92333
-6.39417
-6.65006
-6.03822
-4.85901
-3.76122
-3.26247
-2.85621
-2.59875
-2.27438
-2.2189
-2.43879
-2.68855
-2.83815
-2.77109
-2.74853
-2.66352
-2.49075
-2.25277
-1.83258
-1.42424
-0.935685
-0.516863
-0.187065
-13.071
-12.9067
-12.4222
-12.5651
-13.3933
-14.4342
-15.2796
-15.2272
-14.3332
-12.7873
-10.9727
-9.34928
-8.46733
-7.98642
-7.39372
-6.55248
-6.00696
-6.23122
-6.40438
-6.00268
-4.97458
-3.99779
-3.25507
-2.69681
-2.31478
-2.0474
-2.1174
-2.33022
-2.60056
-2.90876
-2.94007
-2.94362
-2.75453
-2.56068
-2.21953
-1.81037
-1.36929
-0.828626
-0.456864
-0.0582868
-12.7258
-12.2902
-12.3821
-13.2069
-14.8688
-16.4494
-16.8674
-16.43
-15.2582
-13.4382
-11.0095
-8.81301
-7.71883
-7.49185
-7.60927
-7.01024
-6.58091
-6.45868
-6.30012
-5.92959
-4.93425
-4.06313
-3.29607
-2.4636
-2.01685
-2.01252
-2.40182
-2.71322
-3.27205
-3.37677
-3.40638
-3.41041
-3.16232
-2.92165
-2.38723
-1.80751
-1.08174
-0.679796
-0.364998
-0.13554
-9.16103
-8.83508
-9.68169
-12.0742
-15.2147
-17.2693
-18.0124
-17.7528
-16.4641
-14.3103
-11.0022
-8.02483
-6.44717
-6.40229
-6.84583
-6.57021
-6.83537
-6.78227
-6.81523
-6.68901
-6.00824
-4.93637
-2.39189
-0.93225
-0.184025
-0.386636
-0.917611
-2.00942
-3.03969
-3.25724
-3.90607
-3.77897
-3.65277
-3.38784
-2.91044
-2.31258
-1.17795
-0.592355
0.404522
0.891761
49.3438
52.3289
65.8269
78.7079
49.476
50.3777
65.0007
77.1455
-38.5221
-39.0527
-13.5528
-7.06846
-42.6099
-38.0681
-10.4859
-13.6972
-17.5927
-10.3569
-16.5265
-14.1795
-14.9523
-16.7432
-18.842
-19.0237
-15.7628
-13.3082
-10.6644
-8.42735
-7.34337
-6.47039
-5.59898
-5.27466
-5.65067
-5.99767
-5.66352
-5.71142
-5.75246
-4.72853
-3.8738
-3.49893
-2.61635
-2.29158
-3.05478
-3.17716
-3.26201
-3.30449
-3.22995
-2.92259
-2.88029
-2.56551
-1.99273
-1.74444
-1.36518
-0.723635
-0.157325
0.0371881
-13.9282
-16.7888
-15.7977
-14.4316
-16.3163
-17.2776
-17.7213
-16.3901
-16.0104
-14.5232
-10.7947
-8.45539
-7.02471
-5.92425
-4.64493
-4.13447
-4.14868
-3.69238
-3.95825
-4.56885
-4.92103
-4.96237
-5.08016
-5.21638
-5.45335
-5.37457
-4.8358
-4.55764
-4.0745
-3.47865
-2.72864
-2.19592
-1.71654
-1.137
-0.87204
-0.908667
-0.787139
-0.719106
-0.82846
-0.517152
44.6602
40.4401
36.9835
20.0416
35.5639
33.4729
24.5422
14.4893
30.8142
32.1477
28.3137
22.2571
30.4913
31.3788
28.162
21.7544
-30.9258
-56.3496
-1.07971
-5.44379
13.5496
4.86054
13.253
4.16957
-25.3069
-12.1125
0.701923
-6.85038
1.08342
0.0567212
-2.86661
-8.74566
-2.26254
-8.28344
-12.1459
-13.6087
-2.90427
-7.70221
-10.3528
-11.2834
-15.1365
-15.252
-13.8124
-14.2209
-15.9736
-17.5081
-18.4177
-16.6739
-14.6159
-12.5353
-10.683
-8.99625
-7.1297
-5.55658
-3.68722
-2.9008
-2.3789
-2.92777
-3.27248
-3.76891
-4.86112
-5.37862
-6.20203
-6.27292
-6.51954
-6.35601
-5.63896
-5.19232
-4.27416
-3.60715
-2.39898
-1.23733
-0.418161
0.0937783
0.219194
0.295478
-0.398365
-0.592563
-0.913002
-0.796127
-14.5592
-16.8866
-16.2948
-14.6743
-14.6822
-15.6396
-16.3619
-15.6424
-13.9962
-12.2138
-10.6176
-9.30426
-7.74702
-6.41852
-4.97736
-3.9484
-3.54819
-3.56753
-4.07663
-4.30675
-4.79864
-5.13107
-5.50763
-5.78983
-5.69662
-5.5126
-4.94154
-4.48138
-3.78778
-3.20642
-2.50078
-1.91327
-1.41691
-0.948845
-0.807838
-0.690532
-0.819864
-0.792794
-0.608432
-0.352094
-14.3557
-14.9965
-15.2044
-14.6051
-14.1339
-14.4118
-14.807
-14.6627
-13.4786
-11.9891
-10.4553
-9.08053
-7.87495
-6.72089
-5.68335
-4.6601
-4.26127
-4.26175
-4.48165
-4.46635
-4.31445
-4.51763
-4.84414
-5.20887
-5.17507
-5.06317
-4.85575
-4.5444
-4.17415
-3.55601
-2.92993
-2.18332
-1.54473
-1.04452
-0.63515
-0.36881
-0.0433771
-0.0355751
-0.00233432
0.0306012
-11.8461
-12.6818
-13.8072
-14.2485
-14.0004
-14.0579
-14.2222
-14.1552
-13.3426
-12.1436
-10.5737
-9.10835
-7.98147
-6.81442
-5.79324
-4.90509
-4.66883
-4.63286
-4.63403
-4.42811
-4.22941
-4.44546
-4.76137
-5.1678
-5.12303
-4.95062
-4.72
-4.38039
-4.01504
-3.38959
-2.82389
-2.15833
-1.64115
-1.18211
-0.737819
-0.430983
-0.203644
-0.117056
-0.0991569
-0.065716
)
;

boundaryField
{
    inlet
    {
        type            zeroGradient;
    }
    outlet
    {
        type            fixedValue;
        value           uniform 0;
    }
    obstacle
    {
        type            zeroGradient;
    }
    upperWall
    {
        type            zeroGradient;
    }
    lowerWall
    {
        type            zeroGradient;
    }
    frontAndBack
    {
        type            empty;
    }
}


// ************************************************************************* //
