/*--------------------------------*- C++ -*----------------------------------*\
  =========                 |
  \\      /  F ield         | OpenFOAM: The Open Source CFD Toolbox
   \\    /   O peration     | Website:  https://openfoam.org
    \\  /    A nd           | Version:  10
     \\/     M anipulation  |
\*---------------------------------------------------------------------------*/
FoamFile
{
    format      ascii;
    class       volVectorField;
    location    "3.875";
    object      U;
}
// * * * * * * * * * * * * * * * * * * * * * * * * * * * * * * * * * * * * * //

dimensions      [0 1 -1 0 0 0 0];

internalField   nonuniform List<vector> 
496
(
(9.9561 0.0631617 0)
(10.0074 -0.234542 0)
(10.3592 -0.0882314 0)
(10.878 -0.283426 0)
(10.2331 0.332496 0)
(9.63892 -1.18337 0)
(10.5717 -0.293433 0)
(10.6755 -1.23916 0)
(11.5802 1.13393 0)
(8.13422 -2.6878 0)
(11.9676 0.0490136 0)
(9.77269 -4.07213 0)
(13.0468 1.28951 0)
(6.94366 -2.3411 0)
(14.4052 0.405976 0)
(8.37695 -6.36211 0)
(11.502 -0.189111 3.99966e-18)
(12.1729 -0.206507 -1.42113e-18)
(11.8045 -0.462388 3.92631e-19)
(12.2636 0.0195612 7.82463e-19)
(13.2081 -1.68135 -4.39712e-18)
(12.0154 -0.569822 6.40139e-19)
(15.0748 -5.33753 -2.66816e-17)
(13.5844 -4.45875 5.93289e-17)
(12.6853 -0.117173 0)
(12.9667 -0.0655683 0)
(13.1378 0.0367939 0)
(13.1717 0.0874067 0)
(12.9334 0.0247404 0)
(13.2847 -0.373216 0)
(13.474 -0.593791 0)
(13.5727 -0.601863 0)
(12.1727 1.5179 0)
(12.0182 0.790005 0)
(12.5565 0.356639 0)
(13.1674 0.366596 0)
(14.3636 -2.53507 0)
(8.919 -1.30825 0)
(9.56379 0.358963 0)
(10.6316 -0.856971 0)
(13.2551 0.163179 0)
(13.2357 0.259374 0)
(13.3041 0.228042 0)
(13.2723 0.269504 0)
(13.3767 0.235893 0)
(13.4143 0.309356 0)
(13.4686 0.321193 0)
(13.3765 0.379985 0)
(13.2251 0.416509 0)
(12.9763 0.417777 0)
(12.6924 0.486722 0)
(12.433 0.447577 0)
(12.2559 0.523951 0)
(12.1163 0.477651 0)
(11.9685 0.54432 0)
(11.7013 0.563512 0)
(11.5885 0.599339 0)
(11.4311 0.649923 0)
(11.4282 0.596215 0)
(11.1271 0.602985 0)
(10.9912 0.493815 0)
(10.7788 0.440819 0)
(10.8627 0.33375 0)
(10.9526 0.229971 0)
(11.1656 0.189776 0)
(11.3499 0.0963438 0)
(11.5486 0.139696 0)
(11.6792 0.0959188 0)
(11.8067 0.160511 0)
(11.7407 0.176385 0)
(11.7822 0.235059 0)
(11.5211 0.292766 0)
(11.5291 0.307971 0)
(11.1639 0.36346 0)
(11.1235 0.349689 0)
(10.7794 0.383816 0)
(10.6931 0.36534 0)
(10.5002 0.355114 0)
(10.4303 0.316686 0)
(10.3816 0.269757 0)
(13.6998 -0.534995 0)
(13.6854 -0.458724 0)
(13.6883 -0.516434 0)
(13.7529 -0.446309 0)
(13.8729 -0.436954 0)
(14.0245 -0.253801 0)
(14.0913 -0.175347 0)
(14.0793 -0.0502808 0)
(13.9505 0.00388719 0)
(13.7579 0.00219294 0)
(13.5337 0.0342437 0)
(13.2748 -0.0875317 0)
(13.1663 -0.0905441 0)
(13.0112 -0.236615 0)
(12.9572 -0.207976 0)
(12.7259 -0.221418 0)
(12.6395 -0.213664 0)
(12.5301 -0.164038 0)
(12.463 -0.286709 0)
(12.2868 -0.236915 0)
(12.0446 -0.366977 0)
(11.8986 -0.306521 0)
(11.8426 -0.402455 0)
(11.9262 -0.446666 0)
(12.1047 -0.473051 0)
(12.2643 -0.511273 0)
(12.5509 -0.376558 0)
(12.6609 -0.34707 0)
(12.9386 -0.187885 0)
(12.9475 -0.123309 0)
(13.1233 -0.0286137 0)
(13.0142 0.042459 0)
(13.0623 0.0639086 0)
(12.9058 0.112118 0)
(12.8384 0.0405766 0)
(12.6962 0.0436747 0)
(12.5512 -0.0743475 0)
(12.4588 -0.110192 0)
(12.3303 -0.162623 0)
(12.3269 -0.195767 0)
(13.1538 0.214404 0)
(13.2928 0.00941017 0)
(13.123 -0.188463 0)
(13.2294 -0.195388 0)
(13.3596 -0.180577 0)
(13.5012 0.0717778 0)
(13.6652 0.23244 0)
(13.5724 0.476091 0)
(13.7197 0.662911 0)
(13.4953 0.767433 0)
(13.5294 0.90896 0)
(13.1908 0.780749 0)
(13.2557 0.814509 0)
(13.1256 0.597027 0)
(13.1792 0.691334 0)
(13.0197 0.648307 0)
(12.8085 0.771443 0)
(12.7294 0.947774 0)
(12.3415 0.926386 0)
(12.2268 1.05523 0)
(11.7551 0.785617 0)
(11.682 0.666025 0)
(11.4998 0.217226 0)
(11.4604 -0.162383 0)
(11.6212 -0.369154 0)
(11.5189 -0.614474 0)
(11.8753 -0.419691 0)
(11.7197 -0.50357 0)
(12.0987 -0.168717 0)
(12.0577 -0.110618 0)
(12.2987 0.099365 0)
(12.4512 0.30947 0)
(12.5228 0.34914 0)
(12.7035 0.604657 0)
(12.6288 0.525725 0)
(12.733 0.707609 0)
(12.6192 0.555974 0)
(12.6653 0.518581 0)
(12.6543 0.412822 0)
(12.6054 0.197735 0)
(8.76083 -0.00824036 0)
(9.62827 -0.241809 0)
(8.53259 -0.250942 0)
(8.62794 -0.338324 0)
(8.66057 -0.464771 0)
(9.10421 -0.471534 0)
(8.74605 -0.391788 0)
(9.33481 -0.101594 0)
(9.4478 0.103652 0)
(9.78354 0.16695 0)
(10.0064 0.232831 0)
(9.9175 0.219696 0)
(10.369 0.202555 0)
(10.4173 0.166169 0)
(11.2673 0.0671992 0)
(11.1735 -0.023077 0)
(11.8075 -0.0201457 0)
(12.0811 0.00907001 0)
(12.3739 0.0465602 0)
(12.8693 0.000155711 0)
(12.5849 0.0177866 0)
(12.9366 -0.0166675 0)
(11.8698 -0.0582154 0)
(11.439 -0.0233404 0)
(10.3259 -0.0734017 0)
(9.54946 -0.139913 0)
(8.97139 -0.216357 0)
(8.34073 -0.294556 0)
(8.63305 -0.301648 0)
(8.23964 -0.369602 0)
(8.7732 -0.314734 0)
(8.91175 -0.291535 0)
(9.14728 -0.272118 0)
(9.69464 -0.122571 0)
(9.65375 -0.126689 0)
(10.1721 -0.00993719 0)
(9.7672 0.00247748 0)
(10.023 0.0265559 0)
(9.60342 0.0380076 0)
(9.37997 -0.0473705 0)
(11.4129 0.682637 -1.14535e-17)
(8.7901 -0.811377 -1.91525e-17)
(10.305 0.14775 3.36301e-17)
(5.69183 -4.41201 -8.92989e-17)
(13.132 -0.325392 1.12488e-17)
(7.25653 0.474545 1.86202e-17)
(12.4426 0.600006 -3.28407e-17)
(4.54764 4.24549 8.75114e-17)
(-2.38617 4.15361 0)
(-4.28693 -4.70713 0)
(10.6704 1.85141 0)
(-6.26581 1.00946 0)
(-4.40341 1.09561 4.84311e-17)
(8.25283 -6.67332 0)
(-6.41404 2.41162 0)
(6.17511 1.56029 0)
(5.84352 -0.397217 0)
(-1.19101 1.24067 0)
(0.216871 -1.88822 0)
(1.59513 -0.225123 0)
(-1.13285 0.182947 0)
(1.31031 -0.473707 0)
(-1.26998 -0.273855 0)
(2.59999 0.295314 0)
(1.02243 0.341245 0)
(1.33307 0.718971 0)
(1.40351 0.395796 0)
(1.74037 -0.0214993 0)
(2.06114 -0.123534 0)
(2.8984 0.00924218 0)
(2.86907 -0.00353651 0)
(2.927 0.0656002 0)
(2.99279 0.263607 0)
(3.3206 0.4125 0)
(3.11582 0.614734 0)
(2.66374 0.727554 0)
(2.95962 1.04462 0)
(2.75647 1.26681 0)
(1.82681 0.910777 0)
(2.47143 0.980271 0)
(2.28562 0.930678 0)
(1.90421 0.367935 0)
(2.27623 0.157407 0)
(2.44337 -0.0108722 0)
(2.3702 -0.177342 0)
(2.63331 -0.243333 0)
(2.95754 -0.227919 0)
(2.97347 -0.139594 0)
(3.21454 -0.0975135 0)
(3.70985 0.170078 0)
(3.50622 0.324862 0)
(3.6977 0.394847 0)
(3.90436 0.57086 0)
(3.95961 0.720337 0)
(3.69593 0.549393 0)
(4.06412 0.231036 0)
(-2.39044 -1.27087 0)
(3.79018 2.0281 0)
(1.6847 -0.301421 0)
(0.421132 0.613671 0)
(0.631952 -0.432762 0)
(0.764575 -0.595599 0)
(-0.304715 -1.20323 0)
(-0.000153217 -1.00069 0)
(-1.11169 0.0959522 0)
(0.742752 -0.305422 0)
(1.0186 -0.472027 0)
(1.25302 -0.408009 0)
(1.06009 -0.28587 0)
(1.55835 -0.384055 0)
(1.81348 -0.337997 0)
(1.42749 -0.137536 0)
(2.11286 -0.208583 0)
(2.10047 -0.0454734 0)
(1.65648 0.379952 0)
(2.45829 0.425597 0)
(2.22128 0.330641 0)
(2.83247 0.516405 0)
(2.92727 0.552796 0)
(3.02879 0.235 0)
(3.7781 0.0775879 0)
(3.92791 -0.155265 0)
(3.83085 -0.372635 0)
(4.10931 -0.600824 0)
(4.02744 -0.72139 0)
(4.04524 -0.835496 0)
(3.79325 -0.877215 0)
(3.83627 -0.727472 0)
(3.81995 -0.739181 0)
(3.80083 -0.558967 0)
(3.85843 -0.288786 0)
(4.1068 -0.130576 0)
(4.19134 -0.0856669 0)
(4.45922 0.0917479 0)
(4.80102 0.0324208 0)
(4.96375 -0.258305 0)
(11.0331 -1.8903 0)
(9.06383 3.17114 0)
(11.5292 -1.60434 0)
(11.151 7.41379 0)
(10.3513 -1.49923 0)
(9.71953 3.2709 0)
(10.9768 0.168074 0)
(11.4535 4.40864 0)
(9.8367 -0.650229 0)
(9.99567 1.43633 0)
(10.0535 0.229255 0)
(11.0093 1.13031 0)
(9.93266 -0.110899 0)
(9.88902 0.175482 0)
(10.102 0.124427 0)
(10.7689 0.16824 0)
(11.9228 4.60693 3.52817e-17)
(16.5273 5.21873 -6.39082e-17)
(13.0336 2.36564 0)
(13.9471 0.624893 0)
(11.5776 0.394224 0)
(12.682 -0.303503 0)
(11.4211 0.270374 0)
(12.1719 0.173642 0)
(8.50933 1.56887 0)
(10.3681 0.787389 0)
(6.30119 1.35709 0)
(6.13081 0.150416 0)
(13.0066 -0.193422 0)
(13.5368 -1.12624 0)
(13.3542 -0.670124 0)
(13.6496 -0.159925 0)
(13.2021 -0.206931 0)
(13.6452 -0.0242032 0)
(13.9258 0.373017 0)
(14.0249 0.625515 0)
(12.7027 0.235983 0)
(13.0287 0.212585 0)
(13.1898 0.152742 0)
(13.2139 0.0582614 0)
(8.98228 0.361942 0)
(8.29485 0.309554 0)
(8.66812 0.309659 0)
(7.92716 0.434934 0)
(8.38781 0.321213 0)
(8.13764 0.210676 0)
(8.74334 0.0958516 0)
(8.50863 0.0588673 0)
(8.3588 -0.035013 0)
(8.26725 -0.296127 0)
(8.30006 -0.443334 0)
(8.78686 -0.439638 0)
(8.36004 -0.381916 0)
(8.87377 -0.29987 0)
(8.26502 -0.148882 0)
(8.54743 -0.0506242 0)
(8.30793 0.0529746 0)
(8.37038 0.133237 0)
(8.56894 0.284043 0)
(8.25576 0.444746 0)
(9.01882 0.424344 0)
(9.01751 0.502832 0)
(9.72871 0.427972 0)
(10.1355 0.401021 0)
(10.6367 0.296819 0)
(11.4166 0.127969 0)
(11.5085 0.0965963 0)
(12.2181 -0.0116597 0)
(12.1194 0.023965 0)
(12.3874 0.00276057 0)
(12.1689 0.0591799 0)
(11.8114 0.103634 0)
(11.5985 0.0836708 0)
(10.9766 0.136075 0)
(10.8359 0.114318 0)
(10.3494 0.181736 0)
(10.3989 0.183253 0)
(10.3724 0.19618 0)
(10.4412 0.174667 0)
(10.846 0.0191138 0)
(14.2678 -0.201597 0)
(14.295 -0.223426 0)
(14.4336 -0.302925 0)
(14.0286 -0.122209 0)
(14.1522 -0.264345 0)
(14.1667 -0.271682 0)
(14.2801 -0.456609 0)
(14.3384 -0.569232 0)
(14.1484 -0.557131 0)
(14.1923 -0.714738 0)
(13.9787 -0.619628 0)
(14.0969 -0.784539 0)
(13.8573 -0.622027 0)
(13.8386 -0.650469 0)
(13.6786 -0.473316 0)
(13.4944 -0.280146 0)
(13.4986 -0.22175 0)
(13.2631 0.0279576 0)
(13.4899 -0.0837255 0)
(13.2413 0.13888 0)
(13.4847 -0.0867352 0)
(13.3948 -0.119055 0)
(13.6203 -0.363402 0)
(13.683 -0.587923 0)
(13.6912 -0.68637 0)
(13.7142 -1.0013 0)
(13.4795 -0.944037 0)
(13.3999 -1.11782 0)
(13.0888 -0.938857 0)
(12.9576 -0.84483 0)
(12.7694 -0.662476 0)
(12.5896 -0.330038 0)
(12.5905 -0.26971 0)
(12.3904 0.0681725 0)
(12.5528 -0.0551381 0)
(12.3917 0.112683 0)
(12.5992 -0.0674247 0)
(12.499 -0.16396 0)
(12.6919 -0.265031 0)
(12.6192 -0.569424 0)
(14.0595 0.569166 0)
(14.1227 0.418889 0)
(14.0899 0.187284 0)
(13.9988 0.241639 0)
(13.9199 0.193331 0)
(13.9105 0.206216 0)
(13.9389 0.0995684 0)
(13.8688 0.0352807 0)
(13.758 0.0135506 0)
(13.5411 -0.0501477 0)
(13.3885 0.0279648 0)
(13.1669 -0.0553368 0)
(13.0183 0.0549098 0)
(12.8626 0.0546834 0)
(12.7593 0.182709 0)
(12.6856 0.256382 0)
(12.7203 0.332182 0)
(12.8202 0.457518 0)
(12.9737 0.430977 0)
(13.0446 0.47969 0)
(13.1554 0.341517 0)
(13.1667 0.280821 0)
(13.2629 0.144396 0)
(13.1665 0.0563978 0)
(13.1199 0.0369092 0)
(12.9111 -0.0124499 0)
(12.7684 0.100025 0)
(12.5674 0.109793 0)
(12.3924 0.273384 0)
(12.2513 0.299379 0)
(12.127 0.392244 0)
(12.0843 0.419876 0)
(12.1118 0.417647 0)
(12.1283 0.444828 0)
(12.2938 0.370544 0)
(12.2796 0.35661 0)
(12.5037 0.231512 0)
(12.4262 0.196404 0)
(12.5575 0.0710401 0)
(12.4112 0.0420898 0)
(13.1922 -0.0747578 0)
(13.2129 -0.157426 0)
(13.2353 -0.311812 0)
(13.1744 -0.291529 0)
(13.0578 -0.346251 0)
(12.9688 -0.324425 0)
(12.9487 -0.369714 0)
(12.8122 -0.395801 0)
(12.7083 -0.406415 0)
(12.4517 -0.428767 0)
(12.2918 -0.36513 0)
(11.9772 -0.407189 0)
(11.8661 -0.344423 0)
(11.6322 -0.364494 0)
(11.5429 -0.325449 0)
(11.4434 -0.311065 0)
(11.4923 -0.289717 0)
(11.6074 -0.22235 0)
(11.71 -0.253221 0)
(11.7997 -0.205118 0)
(11.8383 -0.283737 0)
(11.8549 -0.272099 0)
(11.8974 -0.343366 0)
(11.7451 -0.369534 0)
(11.6618 -0.398701 0)
(11.2963 -0.469474 0)
(11.1872 -0.465225 0)
(10.8213 -0.52858 0)
(10.7496 -0.487275 0)
(10.5263 -0.484638 0)
(10.5062 -0.438313 0)
(10.4839 -0.366643 0)
(10.537 -0.359637 0)
(10.6219 -0.264798 0)
(10.7159 -0.306109 0)
(10.7234 -0.251664 0)
(10.8341 -0.32063 0)
(10.6556 -0.346254 0)
(10.7643 -0.391701 0)
(10.3997 -0.445695 0)
)
;

boundaryField
{
    inlet
    {
        type            fixedValue;
        value           uniform (10 0 0);
    }
    outlet
    {
        type            zeroGradient;
    }
    obstacle
    {
        type            noSlip;
    }
    upperWall
    {
        type            noSlip;
    }
    lowerWall
    {
        type            noSlip;
    }
    frontAndBack
    {
        type            empty;
    }
}


// ************************************************************************* //
