/*--------------------------------*- C++ -*----------------------------------*\
  =========                 |
  \\      /  F ield         | OpenFOAM: The Open Source CFD Toolbox
   \\    /   O peration     | Website:  https://openfoam.org
    \\  /    A nd           | Version:  10
     \\/     M anipulation  |
\*---------------------------------------------------------------------------*/
FoamFile
{
    format      ascii;
    class       volScalarField;
    location    "7.65";
    object      p;
}
// * * * * * * * * * * * * * * * * * * * * * * * * * * * * * * * * * * * * * //

dimensions      [0 2 -2 0 0 0 0];

internalField   nonuniform List<scalar> 
475
(
-0.0557813
-0.0811627
-0.110545
-0.13417
-0.156911
-0.0815426
-0.0948692
-0.11113
-0.130177
-0.147104
-0.0796633
-0.0889971
-0.103951
-0.121412
-0.137767
-0.0789949
-0.089757
-0.10464
-0.120042
-0.133579
-0.0491266
-0.0760678
-0.0996692
-0.117286
-0.130018
-0.175188
-0.185802
-0.18956
-0.191316
-0.19384
-0.197561
-0.202001
-0.205424
-0.206298
-0.203784
-0.197345
-0.18711
-0.174068
-0.159429
-0.144484
-0.129869
-0.116099
-0.104909
-0.0983209
-0.0971125
-0.0992271
-0.101911
-0.103369
-0.102487
-0.0988691
-0.0933477
-0.0867068
-0.0786606
-0.0696383
-0.0603152
-0.0513162
-0.0430081
-0.0355596
-0.0288662
-0.0228173
-0.0173757
-0.0127996
-0.00923076
-0.00675135
-0.005
-0.00368981
-0.00252531
-0.00142309
-0.000547246
-1.12604e-05
-0.163675
-0.175194
-0.180955
-0.18271
-0.183065
-0.183152
-0.182995
-0.182068
-0.179786
-0.175885
-0.170249
-0.163202
-0.155158
-0.146719
-0.138202
-0.129093
-0.119889
-0.112976
-0.109849
-0.111161
-0.115077
-0.118956
-0.120678
-0.119193
-0.114179
-0.106825
-0.0977802
-0.0876355
-0.0766725
-0.0655207
-0.0547713
-0.044768
-0.0356923
-0.0276226
-0.0205832
-0.0145412
-0.0097263
-0.00621218
-0.0040115
-0.00265713
-0.00175316
-0.000975749
-0.000170464
0.000254913
0.000410296
-0.151101
-0.160581
-0.166103
-0.168223
-0.167985
-0.166209
-0.163387
-0.159684
-0.155335
-0.150583
-0.146287
-0.143581
-0.142689
-0.142209
-0.137775
-0.128088
-0.121129
-0.11938
-0.119355
-0.120382
-0.123093
-0.125177
-0.125213
-0.122457
-0.11704
-0.109096
-0.0995587
-0.0888444
-0.0773973
-0.065819
-0.0546388
-0.044205
-0.0347139
-0.0262569
-0.0189137
-0.0127423
-0.00793272
-0.00450028
-0.00234756
-0.00100706
-0.00013229
0.000538937
0.00110478
0.00116941
0.000888961
-0.144302
-0.152051
-0.156744
-0.158485
-0.157486
-0.154238
-0.149234
-0.142831
-0.135801
-0.129006
-0.124848
-0.12513
-0.133111
-0.145336
-0.143729
-0.125922
-0.110171
-0.107404
-0.114004
-0.121781
-0.12707
-0.129192
-0.12813
-0.124464
-0.117556
-0.10875
-0.0985756
-0.0874799
-0.0759307
-0.0643846
-0.0532492
-0.042825
-0.033329
-0.0248926
-0.0176138
-0.0115985
-0.00694185
-0.00359089
-0.00139545
1.65009e-05
0.00089551
0.00149015
0.00180386
0.00162395
0.0010235
-0.139598
-0.146615
-0.15098
-0.152493
-0.151059
-0.147046
-0.140841
-0.133266
-0.124953
-0.117615
-0.112913
-0.114477
-0.125636
-0.140416
-0.144745
-0.137156
-0.126578
-0.119612
-0.118265
-0.120545
-0.123304
-0.124583
-0.123537
-0.119778
-0.113648
-0.105509
-0.0958633
-0.0852117
-0.0740397
-0.0628134
-0.0519261
-0.0416757
-0.0323336
-0.0240381
-0.0169049
-0.0110373
-0.00648526
-0.00318028
-0.00094952
0.000497339
0.00138741
0.00192372
0.00207747
0.00180387
0.00101313
-0.200421
-0.201012
-0.201916
-0.203123
-0.205224
-0.209262
-0.214957
-0.220768
-0.224605
-0.224119
-0.217798
-0.205041
-0.186013
-0.16162
-0.13372
-0.104683
-0.0771489
-0.0530257
-0.0334862
-0.0193455
-0.0106394
-0.0067333
-0.00656715
-0.00892765
-0.0126979
-0.0170074
-0.0211749
-0.0246939
-0.0274562
-0.0295736
-0.0312472
-0.0325412
-0.0332461
-0.0329249
-0.0314516
-0.0290248
-0.0259095
-0.0222943
-0.0185339
-0.0148486
-0.0115186
-0.00863937
-0.00605226
-0.00359453
-0.0010682
-0.194644
-0.196706
-0.198095
-0.200679
-0.204688
-0.210566
-0.217699
-0.224611
-0.229335
-0.229684
-0.224241
-0.212307
-0.193596
-0.169092
-0.140794
-0.110869
-0.0828038
-0.0581738
-0.0382928
-0.0236942
-0.014535
-0.0102058
-0.00963018
-0.0116018
-0.0150008
-0.0189898
-0.0229242
-0.026198
-0.028471
-0.0300114
-0.0313439
-0.0326209
-0.0333842
-0.0331284
-0.0316508
-0.029101
-0.0257214
-0.0218002
-0.0176722
-0.013887
-0.0108283
-0.00837638
-0.00616372
-0.00393604
-0.00139456
-0.203624
-0.202145
-0.2018
-0.202762
-0.206527
-0.213092
-0.221075
-0.228589
-0.234077
-0.234624
-0.229134
-0.217136
-0.19864
-0.174568
-0.146872
-0.118056
-0.0908852
-0.0672483
-0.0482121
-0.0343285
-0.0257614
-0.0218045
-0.0212327
-0.0228155
-0.0254746
-0.0283642
-0.0310283
-0.0330274
-0.0340336
-0.0342267
-0.0341714
-0.0341391
-0.0336629
-0.0321688
-0.029781
-0.0268299
-0.023639
-0.0201769
-0.0166236
-0.0131903
-0.0101573
-0.00767639
-0.00553725
-0.00348874
-0.00135648
-0.190933
-0.193305
-0.194591
-0.197335
-0.202159
-0.209187
-0.21734
-0.224923
-0.230222
-0.231257
-0.226414
-0.215245
-0.197944
-0.175697
-0.150521
-0.12479
-0.100708
-0.0800304
-0.0638759
-0.0527025
-0.04627
-0.0436103
-0.0433815
-0.0443714
-0.0456024
-0.0463664
-0.0463517
-0.0457388
-0.0441115
-0.0416682
-0.0389955
-0.0363582
-0.0335963
-0.0305525
-0.027385
-0.0242392
-0.0209798
-0.0174693
-0.0138847
-0.0106015
-0.00795813
-0.00591102
-0.0042723
-0.00267245
-0.00109218
-0.227136
-0.206357
-0.202544
-0.200757
-0.202659
-0.208123
-0.21505
-0.220932
-0.224338
-0.223726
-0.218015
-0.206927
-0.191077
-0.171643
-0.15045
-0.129423
-0.110157
-0.0942145
-0.0829562
-0.0766837
-0.0742055
-0.0738834
-0.0742983
-0.0743888
-0.0734539
-0.0712545
-0.0678452
-0.063165
-0.057552
-0.0514896
-0.0454753
-0.0398168
-0.0345978
-0.029693
-0.0250025
-0.020569
-0.0165899
-0.0131119
-0.0102368
-0.00786352
-0.00596677
-0.00432845
-0.0029199
-0.00161711
-0.00057804
)
;

boundaryField
{
    inlet
    {
        type            zeroGradient;
    }
    outlet
    {
        type            fixedValue;
        value           uniform 0;
    }
    upperWall
    {
        type            zeroGradient;
    }
    lowerWall
    {
        type            zeroGradient;
    }
    frontAndBack
    {
        type            empty;
    }
}


// ************************************************************************* //
