/*--------------------------------*- C++ -*----------------------------------*\
  =========                 |
  \\      /  F ield         | OpenFOAM: The Open Source CFD Toolbox
   \\    /   O peration     | Website:  https://openfoam.org
    \\  /    A nd           | Version:  10
     \\/     M anipulation  |
\*---------------------------------------------------------------------------*/
FoamFile
{
    format      ascii;
    class       volVectorField;
    location    "7.675";
    object      U;
}
// * * * * * * * * * * * * * * * * * * * * * * * * * * * * * * * * * * * * * //

dimensions      [0 1 -1 0 0 0 0];

internalField   nonuniform List<vector> 
496
(
(9.97183 0.0429529 0)
(10.0426 -0.164753 0)
(10.2171 -0.130926 0)
(10.7245 -0.253847 0)
(10.0212 0.252059 0)
(10.0131 -0.864272 0)
(10.2941 -0.550106 0)
(10.8727 -1.07622 0)
(10.6993 0.92091 0)
(9.23245 -2.14691 0)
(11.2754 -0.571078 0)
(10.4417 -3.27824 0)
(11.6716 1.15122 0)
(8.10218 -2.12517 0)
(12.8154 0.160114 0)
(9.03878 -5.86602 0)
(11.4024 -0.162525 1.6861e-18)
(12.0239 -0.17878 6.96285e-19)
(11.6931 -0.517631 -1.50515e-18)
(12.2193 -0.00556259 2.8694e-18)
(13.284 -1.93616 -1.82705e-19)
(12.4329 -0.406484 -3.56665e-18)
(13.7749 -5.6086 -3.35206e-17)
(13.8103 -4.00962 6.36496e-17)
(12.5843 -0.163764 0)
(12.9162 -0.102142 0)
(13.1491 -0.162329 0)
(13.2463 -0.0872885 0)
(12.9474 -0.00695616 0)
(13.2176 -0.316904 0)
(13.5294 -0.578169 0)
(13.8322 -0.537627 0)
(12.8536 1.09966 0)
(12.3069 0.213786 0)
(13.1289 0.339639 0)
(13.5942 0.339692 0)
(12.9131 -3.00607 0)
(6.94664 -2.63923 0)
(11.1179 -0.808111 0)
(9.56374 -0.254029 0)
(13.3942 0.0672505 0)
(13.3036 0.169121 0)
(13.071 0.186216 0)
(12.8284 0.134413 0)
(12.9481 0.208655 0)
(13.1222 0.238821 0)
(13.3705 0.308288 0)
(13.312 0.326548 0)
(13.3445 0.361046 0)
(13.1421 0.434274 0)
(13.1662 0.460877 0)
(12.9057 0.554967 0)
(12.8042 0.490656 0)
(12.4506 0.575493 0)
(12.2686 0.461822 0)
(11.9931 0.547626 0)
(11.7667 0.412023 0)
(11.6831 0.423858 0)
(11.5153 0.299422 0)
(11.667 0.255695 0)
(11.5257 0.24652 0)
(11.7201 0.199801 0)
(11.5332 0.329543 0)
(11.5381 0.266811 0)
(11.19 0.385869 0)
(10.8149 0.35057 0)
(10.4744 0.453084 0)
(9.96049 0.448896 0)
(9.86382 0.37169 0)
(9.55367 0.320192 0)
(9.75686 0.124489 0)
(9.87619 0.125351 0)
(10.1048 0.0136554 0)
(10.477 0.0786256 0)
(10.3704 0.105109 0)
(10.6355 0.160252 0)
(10.1559 0.297274 0)
(10.0366 0.256336 0)
(9.48866 0.442587 0)
(8.90628 0.361044 0)
(14.0818 -0.218861 0)
(13.8712 -0.149419 0)
(13.5874 -0.200313 0)
(13.4195 -0.315981 0)
(13.6637 -0.281795 0)
(13.8416 -0.355539 0)
(14.093 -0.355483 0)
(14.064 -0.374571 0)
(14.1506 -0.357267 0)
(14.0445 -0.225818 0)
(14.0738 -0.203323 0)
(13.867 -0.0221217 0)
(13.7376 -0.0823673 0)
(13.4878 0.0634751 0)
(13.2885 -0.0281849 0)
(13.118 -0.0102584 0)
(12.8421 -0.106866 0)
(12.811 -0.200935 0)
(12.6373 -0.165729 0)
(12.8275 -0.332644 0)
(12.7703 -0.214914 0)
(13.0033 -0.274529 0)
(12.981 0.0138143 0)
(12.9364 0.130066 0)
(12.7782 0.366529 0)
(12.4497 0.366375 0)
(12.2145 0.245319 0)
(11.7891 0.134064 0)
(11.491 -0.169938 0)
(11.3306 -0.13517 0)
(11.2194 -0.50013 0)
(11.498 -0.386772 0)
(11.5347 -0.554703 0)
(11.986 -0.385258 0)
(11.9946 -0.165988 0)
(12.3116 0.046064 0)
(12.1629 0.452711 0)
(12.0183 0.476245 0)
(11.9553 0.58365 0)
(11.2749 0.19985 0)
(14.0939 0.41884 0)
(13.5437 0.195296 0)
(13.3729 0.131521 0)
(13.2521 0.100031 0)
(13.2819 0.028502 0)
(13.4938 -0.00838386 0)
(13.508 0.099242 0)
(13.7535 0.160579 0)
(13.5557 0.225154 0)
(13.8833 0.425861 0)
(13.6824 0.45782 0)
(13.9099 0.718039 0)
(13.6683 0.638851 0)
(13.7135 0.928519 0)
(13.5136 0.829839 0)
(13.3454 0.916789 0)
(13.2512 0.678174 0)
(13.0482 0.477811 0)
(13.1081 0.290503 0)
(12.7873 -0.0779169 0)
(13.0019 0.0464716 0)
(12.8997 -0.177639 0)
(13.2576 0.266226 0)
(13.3644 0.325735 0)
(13.5107 0.879811 0)
(13.4371 1.16631 0)
(13.0451 1.36909 0)
(12.9388 1.51867 0)
(12.3579 0.902391 0)
(12.53 0.648872 0)
(11.8894 -0.298668 0)
(12.0515 -0.36609 0)
(11.7726 -0.658319 0)
(11.8018 -0.61296 0)
(12.094 -0.252387 0)
(12.1252 -0.312788 0)
(12.7552 0.530959 0)
(12.7133 0.435623 0)
(13.0513 1.30167 0)
(12.515 1.20453 0)
(9.75807 0.208699 0)
(9.4726 0.177697 0)
(9.43956 0.369449 0)
(9.44851 -0.217248 0)
(8.25609 -0.332256 0)
(9.10344 -0.532502 0)
(8.7949 -0.667535 0)
(8.35212 -0.51647 0)
(8.18177 -0.294069 0)
(8.60161 -0.0856536 0)
(8.54284 -0.0746783 0)
(9.08743 -0.0322278 0)
(8.75983 0.0201941 0)
(9.70378 0.166489 0)
(9.02922 0.281368 0)
(9.80511 0.372692 0)
(8.67685 0.413618 0)
(9.07652 0.372541 0)
(8.08113 0.234925 0)
(8.13869 0.0896813 0)
(8.23405 -0.111133 0)
(8.08442 -0.298118 0)
(9.22121 -0.362889 0)
(9.0885 -0.278598 0)
(10.599 -0.0197162 0)
(10.6507 0.245311 0)
(11.5716 0.459854 0)
(11.7501 0.537873 0)
(11.1816 0.459941 0)
(11.0814 0.512512 0)
(9.20181 0.404288 0)
(9.38686 0.406093 0)
(8.05697 0.0570105 0)
(8.23329 -0.324471 0)
(8.70191 -0.325342 0)
(8.50995 -0.579308 0)
(10.1797 -0.132535 0)
(10.0561 0.0329167 0)
(11.3856 0.515231 0)
(11.8776 0.602985 0)
(12.0512 0.848402 -9.38223e-18)
(8.06142 -1.00882 -1.61684e-17)
(11.0617 0.713552 2.80288e-17)
(4.98522 -4.55399 -7.88728e-17)
(13.0249 -0.523551 8.91558e-18)
(7.0433 0.896581 1.54432e-17)
(12.7584 0.49722 -2.67141e-17)
(4.20205 4.67063 7.46746e-17)
(-6.13593 3.25883 0)
(0.749273 -1.30275 0)
(-2.61643 2.35658 0)
(-3.99384 -3.0921 0)
(14.9861 -1.29377 4.44874e-17)
(-8.30387 -3.42892 0)
(4.89562 4.94681 0)
(1.16665 -1.73616 0)
(0.012859 -0.162787 0)
(2.62232 0.0285354 0)
(1.71172 1.10815 0)
(0.958003 -0.557058 0)
(2.7512 -0.953929 0)
(1.61067 1.9481 0)
(-0.609792 0.28939 0)
(0.27737 -0.112008 0)
(0.505945 0.212796 0)
(0.703546 0.495559 0)
(0.579425 0.408223 0)
(0.719196 0.379085 0)
(0.963881 0.263448 0)
(1.26269 0.411347 0)
(1.35388 0.643568 0)
(1.83092 0.997416 0)
(1.81779 0.97117 0)
(1.85245 0.707835 0)
(1.89404 0.348066 0)
(2.42457 -0.0987963 0)
(2.61962 -0.386214 0)
(3.12196 -0.792642 0)
(3.32766 -0.848815 0)
(4.13069 -0.664457 0)
(4.53001 -0.319827 0)
(4.80954 0.181438 0)
(5.4102 0.723027 0)
(4.92219 1.16909 0)
(5.18332 1.33932 0)
(4.59658 1.39082 0)
(4.82527 0.825349 0)
(4.84365 0.441452 0)
(4.89865 -0.414105 0)
(5.41223 -0.953685 0)
(5.56889 -1.13299 0)
(5.94141 -1.46283 0)
(6.87833 -0.957957 0)
(6.76994 -0.855887 0)
(7.90463 -0.141662 0)
(7.73489 0.515024 0)
(0.326509 -3.35549 0)
(-0.125579 -0.665684 0)
(-1.12893 0.874658 0)
(3.56767 -1.20526 0)
(-2.63767 0.469288 0)
(1.01152 1.43399 0)
(1.43395 -0.361248 0)
(0.755828 -0.750562 0)
(-0.144566 -0.424654 0)
(0.527685 -0.354488 0)
(0.521342 -0.467234 0)
(1.13502 -0.525526 0)
(1.46741 -0.474064 0)
(1.38858 -0.151456 0)
(1.70064 0.121055 0)
(2.04411 0.174535 0)
(2.96146 0.226109 0)
(2.90359 0.15058 0)
(3.53158 -0.0300157 0)
(3.6424 -0.511887 0)
(4.01036 -0.891065 0)
(3.76814 -1.17667 0)
(3.64916 -1.23423 0)
(3.61845 -1.21528 0)
(3.49834 -0.72006 0)
(3.76335 -0.12149 0)
(3.97452 0.404095 0)
(4.54299 0.957364 0)
(4.73 1.08203 0)
(5.50164 1.07663 0)
(5.9934 0.74646 0)
(6.3874 0.183655 0)
(7.10257 -0.283385 0)
(6.45349 -0.701781 0)
(7.05506 -1.04713 0)
(6.21665 -1.36862 0)
(5.97468 -0.950391 0)
(6.23976 -0.98392 0)
(5.79804 -0.0118581 0)
(6.34792 0.77273 0)
(11.7674 -1.59152 0)
(8.7419 3.00986 0)
(12.0839 -1.29643 0)
(11.167 7.48008 0)
(10.5972 -1.52065 0)
(9.47565 3.20077 0)
(11.1387 0.156491 0)
(11.1746 4.41276 0)
(9.98789 -0.54518 0)
(9.89604 1.3468 0)
(10.1315 0.349826 0)
(11.0081 1.2238 0)
(9.96711 -0.0691563 0)
(9.92628 0.121749 0)
(10.1458 0.150872 0)
(10.7725 0.18771 0)
(12.3588 4.86159 5.01312e-17)
(16.5835 5.4628 -8.11568e-17)
(13.3916 2.20932 0)
(13.5969 0.677491 0)
(11.6872 0.343656 0)
(12.6779 -0.174397 0)
(11.5047 0.202226 0)
(12.2052 0.190905 0)
(9.70351 1.45953 0)
(11.4013 2.83882 0)
(9.44614 0.38263 0)
(11.077 -0.546712 0)
(13.345 -0.756711 0)
(13.2399 -1.1019 0)
(13.4656 -1.1468 0)
(14.0433 -1.36744 0)
(13.2529 -0.283638 0)
(13.6634 0.0594839 0)
(13.925 0.385354 0)
(13.9502 0.439606 0)
(12.8085 0.14011 0)
(13.0421 0.169694 0)
(13.1086 -0.00129717 0)
(12.8924 -0.239936 0)
(11.1525 -0.469112 0)
(11.4061 -0.0841047 0)
(9.64525 0.0989625 0)
(10.6789 0.255652 0)
(10.4368 0.8668 0)
(9.76483 0.885828 0)
(9.86015 0.68109 0)
(10.1455 0.54139 0)
(10.3158 0.351379 0)
(9.66261 0.148722 0)
(10.4424 -0.114656 0)
(9.27803 -0.0679277 0)
(10.3471 -0.199156 0)
(9.19558 0.0221479 0)
(10.1765 0.0029785 0)
(9.51297 0.223283 0)
(10.1868 0.147947 0)
(10.6136 0.117163 0)
(10.5653 -0.0205256 0)
(11.7942 -0.275339 0)
(11.1245 -0.339682 0)
(12.4094 -0.549574 0)
(10.8982 -0.383446 0)
(11.4414 -0.47274 0)
(9.71233 -0.267477 0)
(9.64335 -0.178251 0)
(8.97736 0.117735 0)
(8.67651 0.460613 0)
(9.52886 0.434344 0)
(9.16548 0.544649 0)
(10.7636 0.0241196 0)
(10.6111 -0.155798 0)
(11.8542 -0.640037 0)
(12.1351 -0.704549 0)
(12.1681 -0.601556 0)
(12.5457 -0.652724 0)
(10.8016 -0.288067 0)
(10.7382 -0.571756 0)
(9.05742 -0.171384 0)
(8.83455 0.275193 0)
(13.5896 -1.43082 0)
(13.22 -1.23671 0)
(12.6999 -0.587924 0)
(12.8522 -0.318565 0)
(12.945 -0.0273378 0)
(13.0594 -0.0022001 0)
(13.2054 0.0797866 0)
(13.1886 -0.214471 0)
(13.494 -0.510266 0)
(13.0446 -0.569546 0)
(13.3959 -0.818481 0)
(12.7776 -0.535692 0)
(13.1817 -0.633061 0)
(12.6942 -0.252887 0)
(13.0882 -0.367233 0)
(12.8665 -0.203938 0)
(13.0363 -0.305644 0)
(13.1563 -0.571275 0)
(12.9419 -0.66396 0)
(13.0481 -1.16099 0)
(12.3278 -1.04921 0)
(12.4612 -1.35665 0)
(11.7652 -0.800604 0)
(11.996 -0.56505 0)
(11.5687 0.104378 0)
(11.6482 0.412656 0)
(11.789 0.475806 0)
(11.7777 0.634794 0)
(12.3774 0.100531 0)
(12.2756 0.148019 0)
(12.9587 -0.710503 0)
(12.5779 -0.799957 0)
(12.7439 -1.4288 0)
(12.1 -1.53054 0)
(11.742 -1.16694 0)
(11.5935 -0.965934 0)
(10.9398 0.181403 0)
(11.1846 0.335462 0)
(10.6544 0.895559 0)
(10.9103 0.721662 0)
(13.564 0.407295 0)
(13.0429 0.527764 0)
(12.679 0.722981 0)
(12.8374 0.768263 0)
(13.0804 0.846002 0)
(13.4025 0.747333 0)
(13.521 0.755975 0)
(13.6339 0.600016 0)
(13.6397 0.450503 0)
(13.6099 0.346991 0)
(13.5309 0.22312 0)
(13.4128 0.287729 0)
(13.313 0.198952 0)
(13.2165 0.323397 0)
(13.2362 0.193323 0)
(13.2231 0.216055 0)
(13.2129 0.10195 0)
(13.1045 -0.04755 0)
(12.9957 -0.0777984 0)
(12.7964 -0.253136 0)
(12.5546 -0.00514557 0)
(12.2782 -0.114889 0)
(11.9325 0.218 0)
(11.8502 0.114502 0)
(11.6957 0.364498 0)
(11.9544 0.389098 0)
(11.9855 0.395128 0)
(12.3797 0.396722 0)
(12.4444 0.0467579 0)
(12.5953 -0.0296946 0)
(12.5135 -0.447148 0)
(12.2534 -0.343634 0)
(12.1459 -0.398874 0)
(11.6202 -0.123365 0)
(11.3923 0.0585752 0)
(10.9926 0.146095 0)
(10.8175 0.484379 0)
(10.9615 0.374097 0)
(10.9406 0.701766 0)
(11.4993 0.46297 0)
(12.6935 -0.513499 0)
(12.3076 -0.631942 0)
(12.1643 -0.539838 0)
(12.2063 -0.526288 0)
(12.4957 -0.432624 0)
(12.7608 -0.496135 0)
(12.923 -0.433963 0)
(13.0054 -0.479714 0)
(12.9399 -0.475071 0)
(12.9216 -0.503766 0)
(12.7622 -0.540273 0)
(12.7112 -0.487775 0)
(12.5318 -0.527639 0)
(12.4707 -0.39417 0)
(12.3904 -0.450807 0)
(12.3027 -0.3535 0)
(12.2676 -0.442682 0)
(12.0025 -0.39278 0)
(11.9571 -0.45323 0)
(11.4907 -0.462304 0)
(11.3588 -0.464071 0)
(10.8235 -0.528682 0)
(10.7508 -0.390196 0)
(10.5233 -0.396557 0)
(10.5576 -0.182481 0)
(10.7618 -0.194525 0)
(10.7843 -0.0912635 0)
(11.2128 -0.11533 0)
(10.9998 -0.187778 0)
(11.2294 -0.191771 0)
(10.7235 -0.391486 0)
(10.5147 -0.361617 0)
(9.99435 -0.56442 0)
(9.49597 -0.49754 0)
(9.41389 -0.453417 0)
(8.9372 -0.325903 0)
(9.2906 -0.119606 0)
(9.2438 -0.100172 0)
(9.65131 0.0540867 0)
(10.1188 -0.0325416 0)
)
;

boundaryField
{
    inlet
    {
        type            fixedValue;
        value           uniform (10 0 0);
    }
    outlet
    {
        type            zeroGradient;
    }
    obstacle
    {
        type            noSlip;
    }
    upperWall
    {
        type            noSlip;
    }
    lowerWall
    {
        type            noSlip;
    }
    frontAndBack
    {
        type            empty;
    }
}


// ************************************************************************* //
