/*--------------------------------*- C++ -*----------------------------------*\
  =========                 |
  \\      /  F ield         | OpenFOAM: The Open Source CFD Toolbox
   \\    /   O peration     | Website:  https://openfoam.org
    \\  /    A nd           | Version:  10
     \\/     M anipulation  |
\*---------------------------------------------------------------------------*/
FoamFile
{
    format      ascii;
    class       surfaceScalarField;
    location    "4.625";
    object      phi;
}
// * * * * * * * * * * * * * * * * * * * * * * * * * * * * * * * * * * * * * //

dimensions      [0 3 -1 0 0 0 0];

internalField   nonuniform List<scalar> 
760
(
-8.56577e-06
8.56577e-06
-2.80849e-05
1.95192e-05
-5.04594e-05
2.23744e-05
-7.28012e-05
2.23419e-05
-9.42219e-05
2.14206e-05
-0.000114276
2.00545e-05
-0.000132532
1.82552e-05
-0.000148481
1.59498e-05
-0.000161537
1.30555e-05
-0.000171031
9.49455e-06
-0.000176237
5.20555e-06
-0.000176393
1.56053e-07
-0.000170774
-5.61952e-06
-0.000158792
-1.19819e-05
-0.000140128
-1.8664e-05
-0.00011489
-2.52377e-05
-8.39046e-05
-3.09853e-05
-4.93736e-05
-3.4531e-05
-1.68097e-05
-3.25639e-05
-1.68097e-05
-2.03326e-05
2.88983e-05
-5.69799e-05
5.61665e-05
-9.75537e-05
6.29482e-05
-0.000137606
6.23945e-05
-0.000175536
5.93506e-05
-0.000210424
5.49422e-05
-0.00024144
4.92714e-05
-0.000267721
4.2231e-05
-0.000288345
3.36789e-05
-0.000302329
2.34789e-05
-0.000308618
1.14944e-05
-0.000306315
-2.14663e-06
-0.000294372
-1.75632e-05
-0.000272122
-3.42315e-05
-0.00023928
-5.15063e-05
-0.000196197
-6.83203e-05
-0.000144266
-8.29161e-05
-8.69093e-05
-9.18882e-05
-3.21764e-05
-8.72968e-05
-4.89861e-05
-2.45914e-05
5.34898e-05
-6.76486e-05
9.92237e-05
-0.000114881
0.00011018
-0.000161281
0.000108795
-0.000205075
0.000103145
-0.000245241
9.51084e-05
-0.000280863
8.4893e-05
-0.000310998
7.23665e-05
-0.000334651
5.73314e-05
-0.000350761
3.95889e-05
-0.000358264
1.89978e-05
-0.000355923
-4.4881e-06
-0.000342639
-3.08471e-05
-0.000317536
-5.9334e-05
-0.000280125
-8.89175e-05
-0.000230598
-0.000117848
-0.000170359
-0.000143155
-0.000103236
-0.000159011
-3.85991e-05
-0.000151933
-8.75851e-05
-2.62798e-05
7.97695e-05
-7.23752e-05
0.000145319
-0.000122843
0.000160648
-0.000172413
0.000158365
-0.000219292
0.000150023
-0.000262473
0.000138289
-0.000301055
0.000123475
-0.000334105
0.000105416
-0.00036061
8.38369e-05
-0.000379459
5.8438e-05
-0.000389435
2.89738e-05
-0.000389257
-4.66664e-06
-0.000377333
-4.27704e-05
-0.000352373
-8.4294e-05
-0.000313355
-0.000127936
-0.000259995
-0.000171208
-0.000193463
-0.000209687
-0.000117908
-0.000234566
-4.42184e-05
-0.000225623
-0.000131804
-2.76103e-05
0.00010738
-7.6376e-05
0.000194085
-0.000129808
0.00021408
-0.000182393
0.000210949
-0.000232342
0.000199972
-0.000278704
0.000184652
-0.000320641
0.000165412
-0.000357266
0.000142041
-0.000387582
0.000114153
-0.000410429
8.12851e-05
-0.000424432
4.29769e-05
-0.000428068
-1.03054e-06
-0.000419257
-5.15813e-05
-0.000396027
-0.000107524
-0.000356467
-0.000167496
-0.00029934
-0.000228334
-0.000225176
-0.000283851
-0.000138453
-0.000321289
-5.22875e-05
-0.000311789
-0.000184091
-2.9203e-05
0.000136583
-8.11368e-05
0.000246019
-0.000138113
0.000271056
-0.000194317
0.000267154
-0.000247976
0.000253631
-0.000298225
0.000234901
-0.000344327
0.000211514
-0.000385492
0.000183205
-0.000420789
0.00014945
-0.000449055
0.000109551
-0.000468793
6.27148e-05
-0.000478125
8.30173e-06
-0.000474507
-5.51995e-05
-0.000454895
-0.000127136
-0.000416057
-0.000206334
-0.000355161
-0.00028923
-0.000271355
-0.000367657
-0.000169133
-0.000423511
-6.48093e-05
-0.000416113
-0.0002489
-3.11884e-05
0.000167771
-8.69871e-05
0.000301817
-0.000148246
0.000332315
-0.000208783
0.000327691
-0.00026685
0.000311698
-0.000321708
0.00028976
-0.000372779
0.000262585
-0.000419442
0.000229868
-0.000460922
0.000190931
-0.000496154
0.000144783
-0.000523608
9.01687e-05
-0.000541037
2.57306e-05
-0.00054553
-5.07063e-05
-0.000532611
-0.000140056
-0.000497143
-0.000241802
-0.000433697
-0.000352676
-0.00033869
-0.000462664
-0.000215546
-0.000546655
-8.48488e-05
-0.00054681
-0.000333749
-3.35973e-05
0.000201369
-9.401e-05
0.00036223
-0.000160296
0.000398602
-0.000225829
0.000393223
-0.000288905
0.000374774
-0.000348965
0.000349819
-0.000405661
0.000319281
-0.000458647
0.000282855
-0.000507437
0.000239721
-0.000551226
0.000188572
-0.000588633
0.000127576
-0.000617346
5.44444e-05
-0.000634069
-3.39838e-05
-0.000632772
-0.000141353
-0.000605804
-0.00026877
-0.000543714
-0.000414766
-0.000437863
-0.000568514
-0.000287883
-0.000696635
-0.000118874
-0.000715819
-0.000452623
-3.64786e-05
0.000237847
-0.000102306
0.000428058
-0.000174344
0.00047064
-0.000245438
0.000464318
-0.00031396
0.000443296
-0.000379591
0.00041545
-0.000442312
0.000382002
-0.000502178
0.000342721
-0.000559176
0.000296719
-0.000613016
0.000242411
-0.000662799
0.000177359
-0.000706453
9.8099e-05
-0.000741159
7.2172e-07
-0.000758997
-0.000123514
-0.000749736
-0.000278031
-0.000698181
-0.000466321
-0.000587017
-0.000679678
-0.000406667
-0.000876985
-0.000181983
-0.000940504
-0.000634606
-3.99503e-05
0.000277797
-0.000112098
0.000500205
-0.000190598
0.00054914
-0.00026769
0.000541409
-0.000341864
0.000517471
-0.000413121
0.000486707
-0.000481872
0.000450752
-0.000548721
0.00040957
-0.00061435
0.000362348
-0.000679334
0.000307396
-0.000743826
0.00024185
-0.000806969
0.000161242
-0.000865419
5.91716e-05
-0.000913732
-7.52004e-05
-0.000937852
-0.000253912
-0.000916059
-0.000488114
-0.000818043
-0.000777694
-0.000615193
-0.00107983
-0.000311091
-0.00124461
-0.000945697
-4.42592e-05
0.000322057
-0.000123834
0.00057978
-0.000209512
0.000634817
-0.00029287
0.000624767
-0.000372603
0.000597203
-0.00044912
0.000563224
-0.00052336
0.000524992
-0.000596606
0.000482816
-0.000670443
0.000436184
-0.000746679
0.000383632
-0.000827124
0.000322295
-0.000913006
0.000247124
-0.00100357
0.000149734
-0.00109667
1.79021e-05
-0.00117853
-0.000172051
-0.00122344
-0.000443205
-0.00118525
-0.000815887
-0.00099759
-0.00126749
-0.000589503
-0.00165269
-0.0015352
-4.98862e-05
0.000371943
-0.000138351
0.000668245
-0.000231939
0.000728405
-0.000321614
0.000714443
-0.000406426
0.000682015
-0.000487315
0.000644113
-0.000565819
0.000603496
-0.00064396
0.000560957
-0.000724349
0.000516573
-0.000810348
0.000469631
-0.000906187
0.000418134
-0.00101683
0.000357768
-0.0011471
0.000280002
-0.00129863
0.000169428
-0.00147261
1.93227e-06
-0.00164566
-0.000270149
-0.00175825
-0.000703298
-0.00166118
-0.00136457
-0.00109915
-0.00221472
-0.00263435
-5.77489e-05
0.000429692
-0.000157134
0.00076763
-0.000259357
0.000830628
-0.000355083
0.000810168
-0.000444001
0.000770933
-0.000527755
0.000727866
-0.000608524
0.000684265
-0.000688975
0.000641409
-0.000772611
0.000600209
-0.00086429
0.00056131
-0.000970928
0.000524772
-0.00110237
0.000489214
-0.00127222
0.000449842
-0.00149768
0.000394889
-0.00179542
0.000299673
-0.0021715
0.000105929
-0.00253475
-0.000340044
-0.00255407
-0.00134524
-0.0017179
-0.00305089
-0.00435225
-6.99665e-05
0.000499658
-0.000183201
0.000880865
-0.000294196
0.000941623
-0.000394739
0.000910712
-0.000486151
0.000862345
-0.000570834
0.00081255
-0.000651308
0.000764739
-0.000730562
0.000720663
-0.00081263
0.000682277
-0.000903381
0.00065206
-0.00101195
0.000633345
-0.0011531
0.000630363
-0.00135082
0.000647562
-0.00164082
0.000684885
-0.00206589
0.000724747
-0.0026278
0.000667834
-0.00316662
0.000198778
-0.00316435
-0.00134752
-0.00200332
-0.00421192
-0.00635557
-8.51958e-05
0.000584854
-0.000215941
0.00101161
-0.000338183
0.00106387
-0.000445317
0.00101785
-0.000538015
0.000955042
-0.00062031
0.000894845
-0.000696073
0.000840502
-0.000768734
0.000793324
-0.00084186
0.000755404
-0.000920344
0.000730544
-0.00101298
0.000725979
-0.00113574
0.000753119
-0.00131839
0.000830219
-0.00160567
0.000972166
-0.00204935
0.00116842
-0.0026191
0.00123759
-0.00312046
0.000700136
-0.00300252
-0.00146546
-0.00185017
-0.00536427
-0.00820574
-0.000149303
0.000734157
-0.000292809
0.00115512
-0.000407779
0.00117883
-0.00050261
0.00111268
-0.000586967
0.0010394
-0.00066391
0.000971788
-0.000734714
0.000911306
-0.000799997
0.000858607
-0.000860924
0.00081633
-0.000919226
0.000788846
-0.000979387
0.00078614
-0.00105015
0.000823883
-0.00115271
0.000932781
-0.00130966
0.00112911
-0.00156172
0.00142049
-0.00184942
0.00152528
-0.00210894
0.000959657
-0.00206994
-0.00150446
-0.00142074
-0.00601346
-0.00962648
-0.000100273
0.00083443
-0.000308252
0.0013631
-0.000468658
0.00133924
-0.000588452
0.00123247
-0.000677144
0.00112809
-0.000744047
0.00103869
-0.000795325
0.000962583
-0.000833928
0.00089721
-0.000860661
0.000843064
-0.000872977
0.000801162
-0.0008675
0.000780663
-0.000836005
0.000792388
-0.000776608
0.000873384
-0.00067273
0.00102524
-0.000543468
0.00129122
-0.000421746
0.00140356
-0.000392014
0.000929926
-0.000581319
-0.00131516
-0.000528669
-0.00606611
-0.0101552
-0.000389564
0.00122399
-0.000491866
0.0014654
-0.000590913
0.00143829
-0.000682279
0.00132384
-0.000730637
0.00117645
-0.000744495
0.00105255
-0.000732753
0.000950841
-0.000698699
0.000863156
-0.000647661
0.000792026
-0.000574778
0.000728279
-0.000479331
0.000685215
-0.000342764
0.000655822
-0.000144309
0.000674928
0.000146274
0.000734653
0.000577099
0.000860399
0.00107474
0.00090592
0.00158905
0.000415614
0.00148697
-0.00121307
0.000842037
-0.00542118
-0.00931311
-0.00133596
0.00255995
-0.00129061
0.00142005
-0.00104724
0.00119492
-0.000698398
0.000974997
-0.000328258
0.000806308
4.12662e-05
0.000683026
0.000396788
0.000595319
0.000732654
0.00052729
0.00105138
0.000473299
0.00135188
0.000427784
0.00164326
0.000393833
0.00193358
0.000365505
0.00225352
0.000354978
0.00263139
0.000356789
0.00315724
0.000334551
0.00379448
0.000268672
0.00436559
-0.000155492
0.00432148
-0.00116896
0.00269192
-0.00379162
-0.0066212
0.00255995
0.00398
0.00517492
0.00614991
0.00695622
0.00763925
0.00823457
0.00876186
0.00923516
0.00966294
0.0100568
0.0104223
0.0107773
0.011134
0.0114686
0.0117373
0.0115818
0.0104128
0.0066212
)
;

boundaryField
{
    movingWall
    {
        type            calculated;
        value           uniform 0;
    }
    fixedWalls
    {
        type            calculated;
        value           uniform 0;
    }
    frontAndBack
    {
        type            empty;
        value           nonuniform List<scalar> 0();
    }
}


// ************************************************************************* //
