/*--------------------------------*- C++ -*----------------------------------*\
  =========                 |
  \\      /  F ield         | OpenFOAM: The Open Source CFD Toolbox
   \\    /   O peration     | Website:  https://openfoam.org
    \\  /    A nd           | Version:  10
     \\/     M anipulation  |
\*---------------------------------------------------------------------------*/
FoamFile
{
    format      ascii;
    class       surfaceScalarField;
    location    "1.275";
    object      phi;
}
// * * * * * * * * * * * * * * * * * * * * * * * * * * * * * * * * * * * * * //

dimensions      [0 3 -1 0 0 0 0];

internalField   nonuniform List<scalar> 
760
(
-1.37343e-05
1.37343e-05
-3.09973e-05
1.7263e-05
-4.77861e-05
1.67888e-05
-6.33825e-05
1.55963e-05
-7.73868e-05
1.40043e-05
-8.94591e-05
1.20723e-05
-9.93077e-05
9.84867e-06
-0.000106692
7.38431e-06
-0.000111423
4.73144e-06
-0.000113367
1.94358e-06
-0.000112443
-9.2361e-07
-0.000108632
-3.8112e-06
-0.000101978
-6.65473e-06
-9.25932e-05
-9.38431e-06
-8.06695e-05
-1.19238e-05
-6.64773e-05
-1.41921e-05
-5.03712e-05
-1.61061e-05
-3.28028e-05
-1.75685e-05
-1.45932e-05
-1.82096e-05
-1.45932e-05
-1.79204e-05
3.16547e-05
-3.99135e-05
3.92561e-05
-6.12723e-05
3.81476e-05
-8.1098e-05
3.5422e-05
-9.88769e-05
3.17833e-05
-0.000114178
2.7373e-05
-0.000126635
2.23062e-05
-0.000135952
1.67006e-05
-0.000141896
1.06758e-05
-0.000144305
4.35219e-06
-0.000143087
-2.14122e-06
-0.000138217
-8.68075e-06
-0.000129755
-1.51168e-05
-0.000117844
-2.12955e-05
-0.000102722
-2.70463e-05
-8.47274e-05
-3.21864e-05
-6.43075e-05
-3.6526e-05
-4.20356e-05
-3.98403e-05
-1.8932e-05
-4.13131e-05
-3.35252e-05
-1.90503e-05
5.0705e-05
-4.24212e-05
6.2627e-05
-6.50907e-05
6.08171e-05
-8.6113e-05
5.64443e-05
-0.00010495
5.06199e-05
-0.000121152
4.3575e-05
-0.000134343
3.54971e-05
-0.000144218
2.65756e-05
-0.000150541
1.69997e-05
-0.000153149
6.95929e-06
-0.000151929
-3.3608e-06
-0.00014686
-1.37494e-05
-0.000137988
-2.39891e-05
-0.000125445
-3.38385e-05
-0.000109463
-4.30281e-05
-9.03847e-05
-5.12649e-05
-6.86714e-05
-5.82394e-05
-4.49288e-05
-6.35828e-05
-2.02458e-05
-6.59961e-05
-5.37711e-05
-2.03606e-05
7.10656e-05
-4.53472e-05
8.76137e-05
-6.95577e-05
8.50276e-05
-9.19815e-05
7.8868e-05
-0.000112051
7.06894e-05
-0.000129301
6.08255e-05
-0.00014335
4.95454e-05
-0.000153889
3.7115e-05
-0.000160684
2.37941e-05
-0.000163562
9.83734e-06
-0.000162409
-4.51357e-06
-0.000157179
-1.89794e-05
-0.000147898
-3.32699e-05
-0.000134675
-4.70616e-05
-0.00011772
-5.99826e-05
-9.73673e-05
-7.1618e-05
-7.4088e-05
-8.15186e-05
-4.85287e-05
-8.91421e-05
-2.18799e-05
-9.2645e-05
-7.5651e-05
-2.21871e-05
9.32526e-05
-4.94094e-05
0.000114836
-7.57448e-05
0.000111363
-0.00010009
0.000103213
-0.000121838
9.24376e-05
-0.000140507
7.94944e-05
-0.00015571
6.47486e-05
-0.000167145
4.85498e-05
-0.000174579
3.12283e-05
-0.00017784
1.30979e-05
-0.000176801
-5.55191e-06
-0.000171389
-2.43919e-05
-0.000161595
-4.3063e-05
-0.000147488
-6.11687e-05
-0.000129239
-7.82318e-05
-0.000107156
-9.37011e-05
-8.17168e-05
-0.000106958
-5.36198e-05
-0.000117239
-2.42027e-05
-0.000122062
-9.98537e-05
-2.46136e-05
0.000117866
-5.47909e-05
0.000145013
-8.39153e-05
0.000140487
-0.000110759
0.000130057
-0.000134668
0.000116347
-0.000155146
9.99718e-05
-0.000171811
8.14139e-05
-0.000184378
6.11164e-05
-0.000192628
3.94788e-05
-0.000196395
1.68645e-05
-0.000195541
-6.40541e-06
-0.000189953
-2.99804e-05
-0.000179573
-5.34429e-05
-0.000164401
-7.63402e-05
-0.000144541
-9.80924e-05
-0.000120247
-0.000117995
-9.19843e-05
-0.00013522
-6.05097e-05
-0.000148714
-2.73614e-05
-0.00015521
-0.000127215
-2.77366e-05
0.000145603
-6.16957e-05
0.000178972
-9.43535e-05
0.000173145
-0.000124321
0.000160024
-0.000150893
0.000142919
-0.000173568
0.000122646
-0.00019199
9.98367e-05
-0.000205913
7.50394e-05
-0.000215154
4.87198e-05
-0.000219564
2.12737e-05
-0.000218999
-6.97002e-06
-0.000213293
-3.56868e-05
-0.000202315
-6.44207e-05
-0.000185962
-9.26934e-05
-0.000164218
-0.000119836
-0.000137236
-0.000144977
-0.000105429
-0.000167027
-6.96021e-05
-0.000184541
-3.15556e-05
-0.000193257
-0.000158771
-3.16962e-05
0.000177299
-7.04129e-05
0.000217689
-0.000107452
0.000210185
-0.000141223
0.000193795
-0.000170968
0.000172664
-0.000196208
0.000147886
-0.000216651
0.000120279
-0.000232124
9.05129e-05
-0.000242515
5.91102e-05
-0.000247714
2.64728e-05
-0.000247586
-7.0983e-06
-0.000241896
-4.13766e-05
-0.000230409
-7.59074e-05
-0.000212866
-0.000110236
-0.000189061
-0.000143641
-0.000158955
-0.000175083
-0.000122828
-0.000203153
-8.14973e-05
-0.000225872
-3.70924e-05
-0.000237662
-0.000195863
-3.67002e-05
0.000213999
-8.13598e-05
0.000262349
-0.000123764
0.000252589
-0.00016207
0.000232101
-0.000195489
0.000206083
-0.00022361
0.000176008
-0.000246266
0.000142935
-0.000263421
0.000107668
-0.000275083
7.07716e-05
-0.000281221
3.26112e-05
-0.000281729
-6.58992e-06
-0.000276298
-4.68082e-05
-0.000264546
-8.76588e-05
-0.000245986
-0.000128796
-0.000220113
-0.000169515
-0.000186556
-0.00020864
-0.000145314
-0.000244395
-9.71066e-05
-0.000274079
-4.44584e-05
-0.00029031
-0.000240321
-4.30664e-05
0.000257066
-9.51509e-05
0.000314433
-0.000144074
0.000301512
-0.00018769
0.000275717
-0.00022523
0.000243622
-0.000256439
0.000207218
-0.000281373
0.000167869
-0.000300228
0.000126524
-0.000313208
8.37516e-05
-0.00032042
3.98224e-05
-0.000321824
-5.18527e-06
-0.000317035
-5.1597e-05
-0.000305494
-9.92008e-05
-0.000286382
-0.000147908
-0.000258741
-0.000197156
-0.00022165
-0.000245731
-0.000174559
-0.000291486
-0.000117846
-0.000330792
-5.44574e-05
-0.000353699
-0.000294779
-5.12986e-05
0.000308364
-0.000112712
0.000375847
-0.000169517
0.000358317
-0.000219227
0.000325427
-0.000261204
0.000285599
-0.000295506
0.00024152
-0.000322567
0.000194929
-0.000342949
0.000146906
-0.000357163
9.79662e-05
-0.000365533
4.81917e-05
-0.00036815
-2.56736e-06
-0.00036457
-5.51775e-05
-0.000354032
-0.000109739
-0.000335289
-0.000166651
-0.000306707
-0.000225738
-0.000266488
-0.00028595
-0.000213075
-0.000344899
-0.000145983
-0.000397884
-6.84888e-05
-0.000431193
-0.000363268
-6.22321e-05
0.000370596
-0.000135476
0.000449091
-0.000201768
0.000424609
-0.000258278
0.000381937
-0.000304743
0.000332064
-0.000341794
0.000278571
-0.000370472
0.000223608
-0.000391901
0.000168334
-0.000407051
0.000113116
-0.000416558
5.76994e-05
-0.000420759
1.63295e-06
-0.000419157
-5.67792e-05
-0.000410835
-0.000118061
-0.000394039
-0.000183447
-0.000366224
-0.000253552
-0.000324207
-0.000327967
-0.000264693
-0.000404414
-0.00018526
-0.000477316
-8.91476e-05
-0.000527306
-0.000452415
-7.73211e-05
0.000447917
-0.00016572
0.00053749
-0.000243335
0.000502224
-0.000307088
0.000445691
-0.000357597
0.000382572
-0.00039647
0.000317444
-0.000425699
0.000252836
-0.000447233
0.000189869
-0.000462697
0.00012858
-0.000473202
6.82038e-05
-0.000479223
7.65425e-06
-0.000480642
-5.53607e-05
-0.000476271
-0.000122432
-0.000463882
-0.000195836
-0.000439876
-0.000277558
-0.000399126
-0.000368717
-0.000335332
-0.000468208
-0.000242077
-0.000570571
-0.000121627
-0.000647756
-0.000574042
-9.92665e-05
0.000547184
-0.000207189
0.000645412
-0.000298032
0.000593067
-0.000368836
0.000516495
-0.000422038
0.000435773
-0.000460853
0.000356259
-0.000488742
0.000280726
-0.000508797
0.000209923
-0.000523463
0.000143245
-0.000534461
7.92024e-05
-0.000542631
1.58241e-05
-0.000548203
-4.9789e-05
-0.000550043
-0.000120591
-0.000545631
-0.000200249
-0.000530366
-0.000292823
-0.000496817
-0.000402266
-0.000434196
-0.000530829
-0.000327745
-0.000677023
-0.000177893
-0.000797608
-0.000751935
-0.000132613
0.000679797
-0.000265718
0.000778516
-0.000371569
0.000698919
-0.000447945
0.000592871
-0.00050088
0.000488708
-0.000536312
0.000391691
-0.00055984
0.000304254
-0.000575979
0.000226062
-0.000588122
0.000155388
-0.000598665
8.97456e-05
-0.000609018
2.61774e-05
-0.000619882
-3.89255e-05
-0.000630596
-0.000109877
-0.000638892
-0.000191952
-0.000639794
-0.000291921
-0.000623697
-0.000418363
-0.000574664
-0.000579862
-0.000461965
-0.000789721
-0.000279627
-0.000979946
-0.00103156
-0.000195821
0.000875619
-0.000354809
0.000937504
-0.000473786
0.000817896
-0.00055051
0.000669595
-0.000597394
0.000535592
-0.000623979
0.000418276
-0.000638588
0.000318863
-0.000647323
0.000234798
-0.000654498
0.000162563
-0.000663107
9.83543e-05
-0.000675117
3.81873e-05
-0.00069201
-2.20322e-05
-0.00071404
-8.78476e-05
-0.00074031
-0.000165682
-0.000767183
-0.000265048
-0.000783785
-0.000401761
-0.000772877
-0.000590771
-0.000672464
-0.000890134
-0.000474247
-0.00117816
-0.00150581
-0.000255571
0.00113119
-0.000467462
0.00114939
-0.000609588
0.000960022
-0.000682079
0.000742086
-0.000713415
0.000566928
-0.000722324
0.000427186
-0.000721201
0.00031774
-0.000717645
0.000231242
-0.000716408
0.000161326
-0.000720645
0.000102591
-0.000732618
5.01607e-05
-0.000755065
4.15041e-07
-0.00078904
-5.38728e-05
-0.000836526
-0.000118196
-0.000899822
-0.000201751
-0.000966303
-0.00033528
-0.00103882
-0.000518251
-0.000993524
-0.000935433
-0.000813792
-0.0013579
-0.0023196
-0.000570599
0.00170179
-0.000732389
0.00131118
-0.00081382
0.00104145
-0.000837469
0.000765735
-0.000821188
0.000550648
-0.000790834
0.000396832
-0.000759426
0.000286332
-0.000733404
0.00020522
-0.000716273
0.000144194
-0.000710367
9.66848e-05
-0.000717842
5.76363e-05
-0.000740251
2.28238e-05
-0.000783428
-1.06962e-05
-0.000852645
-4.89794e-05
-0.000960264
-9.41321e-05
-0.00109194
-0.000203603
-0.00125627
-0.000353918
-0.00129901
-0.000892693
-0.00107235
-0.00158456
-0.00339195
-0.000981068
0.00268286
-0.000914919
0.00124504
-0.000756251
0.000882785
-0.000570936
0.000580419
-0.000394812
0.000374524
-0.000249441
0.00025146
-0.000138287
0.000175178
-5.69959e-05
0.000123929
-6.21467e-07
8.78199e-05
3.47303e-05
6.1333e-05
5.13436e-05
4.1023e-05
5.02551e-05
2.39123e-05
3.12023e-05
8.35656e-06
-6.01581e-06
-1.17613e-05
-5.41838e-05
-4.59641e-05
-0.000137189
-0.000120598
-0.000190111
-0.000300995
-0.000337874
-0.00074493
-0.000255413
-0.00166702
-0.00364736
0.00268286
0.00392789
0.00481068
0.0053911
0.00576562
0.00601708
0.00619226
0.00631619
0.00640401
0.00646534
0.00650636
0.00653028
0.00653863
0.00652687
0.00648091
0.00636031
0.00605931
0.00531438
0.00364736
)
;

boundaryField
{
    movingWall
    {
        type            calculated;
        value           uniform 0;
    }
    fixedWalls
    {
        type            calculated;
        value           uniform 0;
    }
    frontAndBack
    {
        type            empty;
        value           nonuniform List<scalar> 0();
    }
}


// ************************************************************************* //
