/*--------------------------------*- C++ -*----------------------------------*\
  =========                 |
  \\      /  F ield         | OpenFOAM: The Open Source CFD Toolbox
   \\    /   O peration     | Website:  https://openfoam.org
    \\  /    A nd           | Version:  10
     \\/     M anipulation  |
\*---------------------------------------------------------------------------*/
FoamFile
{
    format      ascii;
    class       volVectorField;
    location    "5.35";
    object      U;
}
// * * * * * * * * * * * * * * * * * * * * * * * * * * * * * * * * * * * * * //

dimensions      [0 1 -1 0 0 0 0];

internalField   nonuniform List<vector> 
400
(
(-9.20503e-05 8.55106e-05 0)
(-0.000812909 0.000311835 0)
(-0.00203346 0.000383625 0)
(-0.00322641 0.000395347 0)
(-0.00441359 0.00039133 0)
(-0.00555654 0.000382357 0)
(-0.00663339 0.00036769 0)
(-0.0076209 0.000344 0)
(-0.00848872 0.000307555 0)
(-0.00919922 0.000254545 0)
(-0.00970771 0.00018154 0)
(-0.00996396 8.64733e-05 0)
(-0.00991372 -3.37504e-05 0)
(-0.00950462 -0.000177072 0)
(-0.00869555 -0.000337388 0)
(-0.00746512 -0.000502896 0)
(-0.00583297 -0.000651649 0)
(-0.00391232 -0.00074341 0)
(-0.00174053 -0.000692787 0)
(-0.000288951 -0.000313874 0)
(-0.000338237 0.000821088 0)
(-0.00183435 0.00176645 0)
(-0.0040921 0.00204929 0)
(-0.00629185 0.00207245 0)
(-0.00844932 0.00200936 0)
(-0.0104925 0.00190517 0)
(-0.0123742 0.0017621 0)
(-0.0140498 0.00157195 0)
(-0.0154681 0.0013244 0)
(-0.0165703 0.00100881 0)
(-0.01729 0.000615389 0)
(-0.0175584 0.000136268 0)
(-0.0173024 -0.000429002 0)
(-0.0164518 -0.00106801 0)
(-0.0149569 -0.00175453 0)
(-0.0127981 -0.00244049 0)
(-0.0100194 -0.0030411 0)
(-0.00679207 -0.00339885 0)
(-0.00318834 -0.00319348 0)
(-0.000638344 -0.0017053 0)
(-0.000432484 0.00212277 0)
(-0.00224184 0.00406936 0)
(-0.00491677 0.00462632 0)
(-0.00750667 0.00464188 0)
(-0.0100344 0.00446494 0)
(-0.012418 0.00418802 0)
(-0.0146047 0.00382021 0)
(-0.0165452 0.00335004 0)
(-0.0181838 0.00276106 0)
(-0.0194574 0.00203568 0)
(-0.0202965 0.00115775 0)
(-0.0206227 0.000115452 0)
(-0.020349 -0.00108973 0)
(-0.0193923 -0.00243599 0)
(-0.0176874 -0.00387066 0)
(-0.0151967 -0.00529676 0)
(-0.0119546 -0.00654358 0)
(-0.00814934 -0.00729097 0)
(-0.003857 -0.00689647 0)
(-0.000784561 -0.00389775 0)
(-0.000461748 0.00347134 0)
(-0.00240555 0.00646955 0)
(-0.00527584 0.007302 0)
(-0.008047 0.00730223 0)
(-0.0107543 0.00700707 0)
(-0.0133147 0.00655727 0)
(-0.0156773 0.00596808 0)
(-0.0177952 0.00522411 0)
(-0.0196139 0.00430172 0)
(-0.02107 0.00317422 0)
(-0.0220896 0.00181594 0)
(-0.0225872 0.000208614 0)
(-0.0224602 -0.00165126 0)
(-0.021596 -0.0037425 0)
(-0.0198899 -0.00599294 0)
(-0.0172607 -0.00825914 0)
(-0.0137056 -0.0102747 0)
(-0.00941953 -0.0115225 0)
(-0.00448024 -0.010973 0)
(-0.000910031 -0.00630104 0)
(-0.000475842 0.00489455 0)
(-0.00251554 0.00901315 0)
(-0.00553954 0.0101368 0)
(-0.00845885 0.0101243 0)
(-0.0113217 0.0097138 0)
(-0.0140468 0.00909705 0)
(-0.0165889 0.00829601 0)
(-0.0189071 0.00729105 0)
(-0.0209515 0.0060499 0)
(-0.0226607 0.00453367 0)
(-0.0239575 0.00270129 0)
(-0.0247437 0.000517215 0)
(-0.0248964 -0.00203636 0)
(-0.024264 -0.0049497 0)
(-0.0226798 -0.0081433 0)
(-0.0199872 -0.0114318 0)
(-0.0161037 -0.0144365 0)
(-0.0112085 -0.0163851 0)
(-0.0053847 -0.0157423 0)
(-0.00110061 -0.00913226 0)
(-0.000490827 0.00637943 0)
(-0.00263529 0.0116913 0)
(-0.00583008 0.0131268 0)
(-0.00891671 0.0131089 0)
(-0.0119574 0.0125921 0)
(-0.0148739 0.0118237 0)
(-0.01763 0.0108332 0)
(-0.0201939 0.00959684 0)
(-0.0225248 0.00807218 0)
(-0.0245678 0.00620426 0)
(-0.026246 0.00392919 0)
(-0.0274518 0.00118225 0)
(-0.0280398 -0.00208869 0)
(-0.0278064 -0.00590704 0)
(-0.0264982 -0.0102099 0)
(-0.0238408 -0.0147836 0)
(-0.01961 -0.0191198 0)
(-0.01391 -0.0221116 0)
(-0.00681358 -0.0215141 0)
(-0.00142568 -0.0126179 0)
(-0.000510017 0.00793549 0)
(-0.00278022 0.0145232 0)
(-0.00617706 0.0162943 0)
(-0.00945938 0.0162791 0)
(-0.0127058 0.0156674 0)
(-0.0158426 0.0147672 0)
(-0.0188458 0.013618 0)
(-0.0216977 0.0121925 0)
(-0.0243728 0.0104375 0)
(-0.0268306 0.0082786 0)
(-0.0290036 0.00562094 0)
(-0.0307824 0.00235573 0)
(-0.0320048 -0.00162672 0)
(-0.032413 -0.00641846 0)
(-0.031642 -0.0120189 0)
(-0.0292424 -0.0182273 0)
(-0.0247521 -0.0244082 0)
(-0.0180626 -0.0290208 0)
(-0.00917193 -0.028776 0)
(-0.0020199 -0.0171699 0)
(-0.00053369 0.00957876 0)
(-0.00295338 0.0175386 0)
(-0.00658562 0.0196701 0)
(-0.0100895 0.0196631 0)
(-0.0135635 0.0189659 0)
(-0.0169402 0.0179549 0)
(-0.0202116 0.016683 0)
(-0.0233801 0.0151224 0)
(-0.026444 0.0132105 0)
(-0.0293891 0.0108524 0)
(-0.0321728 0.00791614 0)
(-0.0347029 0.00423144 0)
(-0.0368194 -0.00040302 0)
(-0.0382229 -0.00617593 0)
(-0.0384263 -0.0132459 0)
(-0.036747 -0.0215132 0)
(-0.0323509 -0.0302724 0)
(-0.0246515 -0.037461 0)
(-0.0133645 -0.0382702 0)
(-0.00321958 -0.023568 0)
(-0.000562667 0.0113261 0)
(-0.0031582 0.0207683 0)
(-0.00705957 0.0232822 0)
(-0.0108055 0.0232818 0)
(-0.0145188 0.0225028 0)
(-0.01814 0.0213994 0)
(-0.0216813 0.0200436 0)
(-0.0251722 0.0184121 0)
(-0.0286447 0.0164388 0)
(-0.0321268 0.0140117 0)
(-0.0356263 0.0109619 0)
(-0.0391039 0.0070482 0)
(-0.04242 0.00195216 0)
(-0.0452983 -0.00469417 0)
(-0.0471824 -0.0133031 0)
(-0.0471158 -0.0240446 0)
(-0.0437593 -0.0363354 0)
(-0.0356275 -0.0476383 0)
(-0.0215453 -0.0511314 0)
(-0.00589441 -0.0334701 0)
(-0.000599934 0.0131979 0)
(-0.00340396 0.0242454 0)
(-0.00761047 0.0271555 0)
(-0.0116125 0.0271476 0)
(-0.015564 0.0262788 0)
(-0.0194148 0.0250932 0)
(-0.0232016 0.0236893 0)
(-0.0269867 0.022057 0)
(-0.0308464 0.0201367 0)
(-0.0348682 0.0178124 0)
(-0.0391396 0.0148899 0)
(-0.0437191 0.0110643 0)
(-0.0485829 0.00588338 0)
(-0.0535703 -0.00128404 0)
(-0.058176 -0.01116 0)
(-0.0613295 -0.0245321 0)
(-0.061181 -0.0413109 0)
(-0.0547367 -0.0590262 0)
(-0.0383162 -0.0689422 0)
(-0.0120281 -0.0503747 0)
(-0.000652525 0.0152236 0)
(-0.00371099 0.0280109 0)
(-0.00826505 0.0313141 0)
(-0.0125307 0.0312628 0)
(-0.0167041 0.0302774 0)
(-0.020746 0.0290041 0)
(-0.0247206 0.0275765 0)
(-0.0287269 0.0260083 0)
(-0.0328917 0.0242626 0)
(-0.0373769 0.0222427 0)
(-0.0423803 0.0197603 0)
(-0.0481255 0.0164811 0)
(-0.0548215 0.0118413 0)
(-0.0625607 0.00495878 0)
(-0.0713121 -0.0053565 0)
(-0.0803764 -0.0205108 0)
(-0.0875961 -0.0420213 0)
(-0.0873478 -0.0693019 0)
(-0.069457 -0.0938048 0)
(-0.0236588 -0.0820523 0)
(-0.000735105 0.0174519 0)
(-0.00411878 0.0321219 0)
(-0.00907483 0.0357848 0)
(-0.0136041 0.0356213 0)
(-0.0179653 0.0344624 0)
(-0.022133 0.0330703 0)
(-0.0262007 0.0316209 0)
(-0.0303031 0.0301625 0)
(-0.0346151 0.0287004 0)
(-0.0393752 0.0271922 0)
(-0.0449112 0.0255138 0)
(-0.0516707 0.0233909 0)
(-0.0602361 0.0202857 0)
(-0.0712971 0.0152423 0)
(-0.085583 0.00671006 0)
(-0.103879 -0.00773023 0)
(-0.123962 -0.0326694 0)
(-0.133821 -0.0748455 0)
(-0.111335 -0.130565 0)
(-0.0367635 -0.140932 0)
(-0.000876649 0.0199555 0)
(-0.00469805 0.0366256 0)
(-0.0101291 0.0405422 0)
(-0.0149132 0.0401501 0)
(-0.0194077 0.03874 0)
(-0.0236053 0.037182 0)
(-0.0276319 0.035686 0)
(-0.03165 0.0343435 0)
(-0.0358646 0.0332235 0)
(-0.0405668 0.0323766 0)
(-0.046191 0.0318156 0)
(-0.0534013 0.0314628 0)
(-0.0632114 0.0310499 0)
(-0.0771432 0.029949 0)
(-0.0974749 0.0267546 0)
(-0.126392 0.0171923 0)
(-0.159414 -0.0105994 0)
(-0.1733 -0.0810402 0)
(-0.139197 -0.191378 0)
(-0.0423863 -0.232164 0)
(-0.00115034 0.022956 0)
(-0.00562279 0.0419029 0)
(-0.0116003 0.0460045 0)
(-0.0165691 0.0452449 0)
(-0.0210935 0.0433724 0)
(-0.0252043 0.041438 0)
(-0.0290421 0.0397272 0)
(-0.0327676 0.0383884 0)
(-0.0365844 0.0375624 0)
(-0.0407875 0.0374261 0)
(-0.045841 0.0382184 0)
(-0.0525138 0.040234 0)
(-0.0620808 0.0437979 0)
(-0.0765452 0.0489503 0)
(-0.0989668 0.0542385 0)
(-0.131253 0.0510884 0)
(-0.166483 0.0148717 0)
(-0.172785 -0.0974341 0)
(-0.136302 -0.266367 0)
(-0.0440798 -0.335862 0)
(-0.00153647 0.026661 0)
(-0.00671365 0.0468619 0)
(-0.0134911 0.0504431 0)
(-0.0187634 0.0488545 0)
(-0.0233623 0.0465699 0)
(-0.0272579 0.0445041 0)
(-0.030677 0.0428162 0)
(-0.033807 0.0416034 0)
(-0.0368111 0.0410435 0)
(-0.0398827 0.0414364 0)
(-0.0433413 0.0432835 0)
(-0.0477567 0.0473562 0)
(-0.0542018 0.0547135 0)
(-0.064264 0.0658477 0)
(-0.0803808 0.0785358 0)
(-0.102687 0.0777917 0)
(-0.128534 0.0310958 0)
(-0.126281 -0.112631 0)
(-0.113261 -0.319166 0)
(-0.0393875 -0.431572 0)
(-0.00358441 0.0301042 0)
(-0.0109756 0.0557112 0)
(-0.0172171 0.0591695 0)
(-0.0218573 0.0571168 0)
(-0.0256696 0.0535612 0)
(-0.0290097 0.0502447 0)
(-0.0319453 0.0474966 0)
(-0.0344913 0.0454827 0)
(-0.0366309 0.0443942 0)
(-0.0383338 0.0445576 0)
(-0.0395739 0.0466148 0)
(-0.0403602 0.0516137 0)
(-0.0410841 0.0611933 0)
(-0.0416003 0.0756956 0)
(-0.0436535 0.0925894 0)
(-0.0443924 0.0913929 0)
(-0.0542887 0.0420253 0)
(-0.0473679 -0.110791 0)
(-0.0724817 -0.339485 0)
(-0.0168894 -0.5024 0)
(-0.00124134 0.0441674 0)
(-0.00892053 0.0583073 0)
(-0.0201529 0.0584898 0)
(-0.025307 0.0539264 0)
(-0.0299936 0.050625 0)
(-0.0329976 0.0481009 0)
(-0.0350444 0.0461355 0)
(-0.0362571 0.0446054 0)
(-0.0366488 0.0436693 0)
(-0.0360409 0.0435894 0)
(-0.034101 0.0450533 0)
(-0.030069 0.048875 0)
(-0.0236648 0.0568667 0)
(-0.0121685 0.0688119 0)
(0.00094444 0.0835336 0)
(0.0248107 0.0830518 0)
(0.0292243 0.0395247 0)
(0.0396604 -0.0923702 0)
(-0.016659 -0.328771 0)
(0.0134551 -0.52433 0)
(-0.0122378 0.0333646 0)
(-0.0246581 0.0800491 0)
(-0.0247018 0.0785287 0)
(-0.0315093 0.0732955 0)
(-0.0340911 0.0660433 0)
(-0.0349965 0.0597817 0)
(-0.0341766 0.0545106 0)
(-0.03201 0.0501953 0)
(-0.0286586 0.0468174 0)
(-0.0239274 0.0442157 0)
(-0.0178936 0.0428249 0)
(-0.00919158 0.0428795 0)
(0.00168897 0.0460684 0)
(0.0196146 0.0518417 0)
(0.0397262 0.0610983 0)
(0.0749768 0.0620514 0)
(0.0867805 0.0339487 0)
(0.12078 -0.0593427 0)
(0.0563198 -0.294149 0)
(0.0562747 -0.509544 0)
(-0.0768742 0.0972048 0)
(-0.0625667 0.0599756 0)
(-0.0647877 0.0600765 0)
(-0.0437895 0.0534124 0)
(-0.026817 0.0465271 0)
(-0.00736166 0.0413543 0)
(0.0109984 0.0376008 0)
(0.0292483 0.0343136 0)
(0.0459786 0.0318629 0)
(0.0634649 0.0294157 0)
(0.0783668 0.0278845 0)
(0.0968532 0.0265949 0)
(0.110017 0.0263273 0)
(0.135753 0.0272219 0)
(0.147072 0.0254565 0)
(0.195008 0.0212025 0)
(0.194378 -0.0124161 0)
(0.243751 -0.0808876 0)
(0.171021 -0.267433 0)
(0.12748 -0.447281 0)
(0.119933 0.140554 0)
(0.152525 0.0860915 0)
(0.229908 0.063584 0)
(0.28514 0.0482317 0)
(0.326649 0.0375742 0)
(0.364969 0.0298736 0)
(0.393784 0.0244445 0)
(0.425412 0.0204927 0)
(0.444959 0.0176598 0)
(0.474337 0.0154379 0)
(0.486401 0.0137546 0)
(0.516486 0.0126934 0)
(0.52182 0.0115406 0)
(0.555334 0.011389 0)
(0.55156 0.0098485 0)
(0.588585 0.00677376 0)
(0.562164 -0.00222564 0)
(0.573567 -0.026509 0)
(0.435216 -0.0728415 0)
(0.278565 -0.15287 0)
)
;

boundaryField
{
    movingWall
    {
        type            fixedValue;
        value           uniform (1 0 0);
    }
    fixedWalls
    {
        type            noSlip;
    }
    frontAndBack
    {
        type            empty;
    }
}


// ************************************************************************* //
