/*--------------------------------*- C++ -*----------------------------------*\
  =========                 |
  \\      /  F ield         | OpenFOAM: The Open Source CFD Toolbox
   \\    /   O peration     | Website:  https://openfoam.org
    \\  /    A nd           | Version:  10
     \\/     M anipulation  |
\*---------------------------------------------------------------------------*/
FoamFile
{
    format      ascii;
    class       surfaceScalarField;
    location    "2.875";
    object      phi;
}
// * * * * * * * * * * * * * * * * * * * * * * * * * * * * * * * * * * * * * //

dimensions      [0 3 -1 0 0 0 0];

internalField   nonuniform List<scalar> 
22800
(
-3.74191e-06
3.91946e-06
-1.82065e-07
-1.02751e-05
6.38869e-06
1.44513e-07
-1.71452e-05
6.63764e-06
2.32484e-07
-2.37952e-05
6.37757e-06
2.72369e-07
-3.00018e-05
5.93867e-06
2.67936e-07
-3.56039e-05
5.36613e-06
2.36006e-07
-4.04531e-05
4.66392e-06
1.85312e-07
-4.44047e-05
3.83263e-06
1.18906e-07
-4.7317e-05
2.87482e-06
3.75442e-08
-4.90602e-05
1.79583e-06
-5.26716e-08
-4.95102e-05
6.0864e-07
-1.586e-07
-4.85641e-05
-6.73573e-07
-2.72526e-07
-4.61534e-05
-2.01906e-06
-3.91684e-07
-4.22529e-05
-3.3893e-06
-5.11187e-07
-3.68972e-05
-4.73234e-06
-6.23419e-07
-3.01962e-05
-5.98393e-06
-7.1698e-07
-2.23604e-05
-7.06366e-06
-7.72171e-07
-1.37642e-05
-7.83808e-06
-7.58097e-07
-5.24502e-06
-7.86166e-06
-6.5756e-07
-5.06324e-06
-1.81778e-07
-6.29697e-06
1.08543e-05
-6.37885e-07
-1.62116e-05
1.66192e-05
-3.15876e-07
-2.65099e-05
1.71419e-05
-2.06041e-07
-3.64234e-05
1.64161e-05
-1.25037e-07
-4.56213e-05
1.52201e-05
-8.34753e-08
-5.38609e-05
1.36708e-05
-6.51672e-08
-6.0924e-05
1.17892e-05
-6.20614e-08
-6.66064e-05
9.58665e-06
-7.17128e-08
-7.07154e-05
7.07806e-06
-9.41968e-08
-7.30719e-05
4.28261e-06
-1.30316e-07
-7.35242e-05
1.2397e-06
-1.78712e-07
-7.19468e-05
-2.0103e-06
-2.40653e-07
-6.825e-05
-5.40558e-06
-3.10295e-07
-6.24167e-05
-8.83797e-06
-3.84646e-07
-5.45081e-05
-1.21846e-05
-4.56356e-07
-4.46884e-05
-1.52904e-05
-5.13238e-07
-3.32578e-05
-1.79615e-05
-5.32744e-07
-2.07399e-05
-1.98748e-05
-4.81203e-07
-8.26764e-06
-1.99852e-05
-3.48652e-07
-1.35e-05
1.69117e-07
-6.94892e-06
1.86221e-05
-8.18813e-07
-1.78178e-05
2.79878e-05
-4.99664e-07
-2.90758e-05
2.87804e-05
-3.80608e-07
-3.99001e-05
2.75241e-05
-2.83597e-07
-4.9941e-05
2.54859e-05
-2.25008e-07
-5.89408e-05
2.28589e-05
-1.88276e-07
-6.66684e-05
1.9682e-05
-1.65165e-07
-7.29064e-05
1.59791e-05
-1.54416e-07
-7.74496e-05
1.17779e-05
-1.56671e-07
-8.01099e-05
7.11581e-06
-1.72846e-07
-8.07164e-05
2.04898e-06
-2.02808e-07
-7.91042e-05
-3.37543e-06
-2.47123e-07
-7.51813e-05
-9.02543e-06
-3.03e-07
-6.89069e-05
-1.47455e-05
-3.66877e-07
-6.03224e-05
-2.03384e-05
-4.30714e-07
-4.95836e-05
-2.55479e-05
-4.81329e-07
-3.70015e-05
-3.00498e-05
-4.93777e-07
-2.31431e-05
-3.33024e-05
-4.30755e-07
-9.26147e-06
-3.35834e-05
-2.83391e-07
-2.30342e-05
2.72731e-07
-7.33672e-06
2.69349e-05
-9.76091e-07
-1.88586e-05
4.01682e-05
-6.58491e-07
-3.07915e-05
4.12456e-05
-5.32314e-07
-4.22757e-05
3.94313e-05
-4.23023e-07
-5.29512e-05
3.65129e-05
-3.51484e-07
-6.25551e-05
3.27639e-05
-3.0102e-07
-7.08513e-05
2.82417e-05
-2.63619e-07
-7.76151e-05
2.29814e-05
-2.38516e-07
-8.26313e-05
1.70209e-05
-2.26842e-07
-8.56938e-05
1.04083e-05
-2.29951e-07
-8.66126e-05
3.21646e-06
-2.48685e-07
-8.5198e-05
-4.50427e-06
-2.85783e-07
-8.12992e-05
-1.25886e-05
-3.35697e-07
-7.48317e-05
-2.0817e-05
-3.96027e-07
-6.57955e-05
-2.89154e-05
-4.59171e-07
-5.43119e-05
-3.65208e-05
-5.1067e-07
-4.06843e-05
-4.31555e-05
-5.22079e-07
-2.55252e-05
-4.8011e-05
-4.50544e-07
-1.02326e-05
-4.85893e-05
-2.86678e-07
-3.35906e-05
3.23748e-07
-7.81507e-06
3.58808e-05
-1.13084e-06
-2.01465e-05
5.33071e-05
-8.07581e-07
-3.2926e-05
5.4699e-05
-6.73853e-07
-4.52432e-05
5.2302e-05
-5.53501e-07
-5.67257e-05
4.84671e-05
-4.7176e-07
-6.71059e-05
4.35557e-05
-4.11566e-07
-7.61439e-05
3.76446e-05
-3.64906e-07
-8.36095e-05
3.07784e-05
-3.31426e-07
-8.92766e-05
2.30008e-05
-3.12757e-07
-9.29203e-05
1.43629e-05
-3.10904e-07
-9.43169e-05
4.94065e-06
-3.27522e-07
-9.324e-05
-5.21675e-06
-3.64461e-07
-8.94721e-05
-1.5939e-05
-4.17521e-07
-8.28529e-05
-2.69514e-05
-4.84743e-07
-7.33019e-05
-3.79086e-05
-5.57802e-07
-6.08764e-05
-4.83259e-05
-6.20424e-07
-4.58528e-05
-5.754e-05
-6.39064e-07
-2.88995e-05
-6.44024e-05
-5.61844e-07
-1.16275e-05
-6.54853e-05
-3.76011e-07
-4.55407e-05
3.22711e-07
-8.44241e-06
4.56327e-05
-1.30951e-06
-2.18242e-05
6.76638e-05
-9.74813e-07
-3.57003e-05
6.94071e-05
-8.32048e-07
-4.90924e-05
6.63935e-05
-6.99417e-07
-6.16132e-05
6.15951e-05
-6.07111e-07
-7.29914e-05
5.54716e-05
-5.37646e-07
-8.2986e-05
4.81221e-05
-4.83014e-07
-9.1364e-05
3.95998e-05
-4.43311e-07
-9.78909e-05
2.99484e-05
-4.20705e-07
-0.000102322
1.92122e-05
-4.17823e-07
-0.0001044
7.45527e-06
-4.37166e-07
-0.000103847
-5.28794e-06
-4.81686e-07
-0.000100353
-1.88869e-05
-5.46252e-07
-9.36507e-05
-3.30228e-05
-6.30672e-07
-8.3534e-05
-4.72994e-05
-7.2595e-07
-6.99418e-05
-6.1105e-05
-8.13007e-07
-5.3083e-05
-7.35477e-05
-8.51036e-07
-3.36763e-05
-8.30352e-05
-7.73959e-07
-1.36324e-05
-8.49684e-05
-5.60921e-07
-5.94429e-05
2.69757e-07
-9.23343e-06
5.63997e-05
-1.53361e-06
-2.39328e-05
8.35475e-05
-1.18435e-06
-3.9176e-05
8.56803e-05
-1.03002e-06
-5.38993e-05
8.19981e-05
-8.81329e-07
-6.76989e-05
7.61697e-05
-7.74935e-07
-8.03032e-05
6.87691e-05
-6.93227e-07
-9.14755e-05
5.99229e-05
-6.28479e-07
-0.000100987
4.9693e-05
-5.81488e-07
-0.000108602
3.81184e-05
-5.55171e-07
-0.000114061
2.52247e-05
-5.5307e-07
-0.000117071
1.1044e-05
-5.79013e-07
-0.000117303
-4.41826e-06
-6.37633e-07
-0.000114323
-2.11447e-05
-7.22697e-07
-0.000107716
-3.8792e-05
-8.37392e-07
-9.70839e-05
-5.69591e-05
-9.72347e-07
-8.21595e-05
-7.49246e-05
-1.10487e-06
-6.30008e-05
-9.15226e-05
-1.18375e-06
-4.03369e-05
-0.000104578
-1.12109e-06
-1.64831e-05
-0.000107944
-8.78536e-07
-7.60641e-05
1.381e-07
-1.02027e-05
6.84255e-05
-1.82312e-06
-2.65121e-05
0.000101315
-1.45814e-06
-4.34106e-05
0.000103867
-1.28807e-06
-5.97293e-05
9.94333e-05
-1.11642e-06
-7.50487e-05
9.24779e-05
-9.88845e-07
-8.91029e-05
8.37116e-05
-8.883e-07
-0.00010167
7.32977e-05
-8.07964e-07
-0.000112537
6.13101e-05
-7.49754e-07
-0.000121481
4.77797e-05
-7.17658e-07
-0.00012824
3.27008e-05
-7.16502e-07
-0.000132494
1.60499e-05
-7.5207e-07
-0.000133869
-2.21194e-06
-8.31915e-07
-0.00013178
-2.22841e-05
-9.49573e-07
-0.00012562
-4.38381e-05
-1.1134e-06
-0.000114707
-6.6557e-05
-1.31525e-06
-9.84283e-05
-8.96745e-05
-1.52892e-06
-7.65282e-05
-0.000111734
-1.68832e-06
-4.96304e-05
-0.000129803
-1.67328e-06
-2.05749e-05
-0.000135592
-1.4074e-06
-9.6515e-05
-1.24037e-07
-1.13754e-05
8.20043e-05
-2.20345e-06
-2.96237e-05
0.000121387
-1.82337e-06
-4.8488e-05
0.000124362
-1.63042e-06
-6.6673e-05
0.000119042
-1.42391e-06
-8.37466e-05
0.000110814
-1.26267e-06
-9.94599e-05
0.000100556
-1.1315e-06
-0.00011362
8.84837e-05
-1.02555e-06
-0.000126052
7.46901e-05
-9.48475e-07
-0.000136564
5.91977e-05
-9.05694e-07
-0.000144919
4.19594e-05
-9.03717e-07
-0.000150785
2.2867e-05
-9.51247e-07
-0.00015378
1.84422e-06
-1.06119e-06
-0.00015314
-2.16977e-05
-1.22652e-06
-0.000148033
-4.74777e-05
-1.46654e-06
-0.000137379
-7.54341e-05
-1.77773e-06
-0.000120012
-0.000104908
-2.13288e-06
-9.50669e-05
-0.000134233
-2.44704e-06
-6.2777e-05
-0.00015954
-2.55235e-06
-2.66218e-05
-0.000169457
-2.29002e-06
-0.000122509
-6.2823e-07
-1.27973e-05
9.75135e-05
-2.71187e-06
-3.33686e-05
0.000144277
-2.31882e-06
-5.45392e-05
0.000147622
-2.09009e-06
-7.48651e-05
0.000141196
-1.82815e-06
-9.39107e-05
0.000131471
-1.61168e-06
-0.000111461
0.000119537
-1.4298e-06
-0.000127376
0.00010568
-1.28129e-06
-0.000141542
9.00281e-05
-1.17225e-06
-0.000153836
7.2602e-05
-1.10971e-06
-0.000164086
5.33105e-05
-1.10174e-06
-0.000172011
3.19495e-05
-1.15737e-06
-0.000177131
8.24749e-06
-1.28279e-06
-0.000178757
-1.85333e-05
-1.53885e-06
-0.000175674
-4.86644e-05
-1.896e-06
-0.000166304
-8.24234e-05
-2.38052e-06
-0.000148659
-0.000119577
-2.97626e-06
-0.000120769
-0.000158541
-3.58186e-06
-8.18323e-05
-0.000194515
-3.96133e-06
-3.59919e-05
-0.000211516
-3.78153e-06
-0.000156803
-1.69721e-06
-1.45541e-05
0.000115475
-3.40736e-06
-3.7917e-05
0.000170644
-3.0036e-06
-6.17742e-05
0.000174194
-2.7148e-06
-8.45128e-05
0.000166296
-2.36105e-06
-0.000105715
0.000154726
-2.05214e-06
-0.000125227
0.000140834
-1.78596e-06
-0.000142988
0.000125008
-1.5672e-06
-0.000158983
0.000107428
-1.40508e-06
-0.000173201
8.8128e-05
-1.30821e-06
-0.000185584
6.69803e-05
-1.2864e-06
-0.000195961
4.36774e-05
-1.35066e-06
-0.000203931
1.77315e-05
-1.51371e-06
-0.00020883
-1.17682e-05
-1.86703e-06
-0.000209191
-4.59225e-05
-2.38042e-06
-0.000202868
-8.56222e-05
-3.12423e-06
-0.000186719
-0.000131614
-4.11278e-06
-0.000156929
-0.000183082
-5.2489e-06
-0.000110367
-0.000234852
-6.22469e-06
-5.14316e-05
-0.000264115
-6.33648e-06
-0.000204202
-4.03309e-06
-1.68101e-05
0.000136674
-4.38871e-06
-4.35627e-05
0.000201368
-3.97136e-06
-7.05339e-05
0.000204741
-3.5753e-06
-9.59394e-05
0.000194766
-3.06418e-06
-0.000119424
0.000180809
-2.59827e-06
-0.000140932
0.000164533
-2.19185e-06
-0.000160522
0.000146457
-1.85859e-06
-0.000178316
0.000126834
-1.61078e-06
-0.000194466
0.000105735
-1.45722e-06
-0.000209102
8.30245e-05
-1.40825e-06
-0.000222262
5.83179e-05
-1.48082e-06
-0.000233742
3.09221e-05
-1.70993e-06
-0.000243126
-2.40803e-07
-2.14327e-06
-0.000248884
-3.73241e-05
-2.84079e-06
-0.000248418
-8.21446e-05
-3.94402e-06
-0.000237182
-0.000137318
-5.53122e-06
-0.00020852
-0.000204164
-7.58025e-06
-0.00015478
-0.000278816
-9.77579e-06
-7.888e-05
-0.000329267
-1.07471e-05
-0.000273918
-9.1641e-06
-1.98988e-05
0.000162406
-5.83345e-06
-5.08217e-05
0.000237674
-5.38354e-06
-8.13743e-05
0.000240076
-4.78225e-06
-0.00010965
0.000227031
-3.98985e-06
-0.000135442
0.000209854
-3.25278e-06
-0.000158846
0.000190551
-2.61314e-06
-0.000180086
0.000169793
-2.09602e-06
-0.000199463
0.000147925
-1.7143e-06
-0.000217338
0.000125082
-1.47148e-06
-0.000234104
0.000101162
-1.3714e-06
-0.000250132
7.57735e-05
-1.42802e-06
-0.000265649
4.81164e-05
-1.67753e-06
-0.000280648
1.69205e-05
-2.16221e-06
-0.00029425
-2.06229e-05
-3.09913e-06
-0.000303742
-6.80375e-05
-4.61528e-06
-0.000303407
-0.000130674
-6.9791e-06
-0.000282823
-0.000214333
-1.0416e-05
-0.000226418
-0.000320391
-1.48297e-05
-0.000131464
-0.000406052
-1.81698e-05
-0.000384562
-2.08189e-05
-2.45433e-05
0.000195
-8.0505e-06
-6.06815e-05
0.000281293
-7.48046e-06
-9.52386e-05
0.000281129
-6.49665e-06
-0.000126442
0.000263431
-5.1954e-06
-0.00015439
0.000241784
-3.98237e-06
-0.00017939
0.000218502
-2.95257e-06
-0.000201875
0.000194422
-2.14454e-06
-0.000222359
0.000169972
-1.56224e-06
-0.00024145
0.000145362
-1.19028e-06
-0.000259861
0.000120585
-1.0122e-06
-0.000278432
9.53702e-05
-1.02571e-06
-0.000298113
6.9058e-05
-1.25994e-06
-0.000319537
4.01043e-05
-1.76017e-06
-0.000342864
5.24643e-06
-2.54223e-06
-0.000367643
-3.89259e-05
-4.33288e-06
-0.000387836
-0.000103116
-7.36428e-06
-0.000389461
-0.000200391
-1.23172e-05
-0.000343689
-0.000346201
-1.9962e-05
-0.000232214
-0.000488941
-2.85864e-05
-0.000571042
-4.57336e-05
-3.14559e-05
0.000238355
-1.18994e-05
-7.42554e-05
0.000334811
-1.07186e-05
-0.000113389
0.000329171
-8.9079e-06
-0.000147489
0.000304137
-6.60623e-06
-0.000177201
0.000276068
-4.57135e-06
-0.000203182
0.000247409
-2.9256e-06
-0.000226192
0.00021912
-1.68787e-06
-0.000246974
0.000191578
-8.24179e-07
-0.000266358
0.00016502
-2.74614e-07
-0.000285328
0.00013953
2.49659e-08
-0.000305126
0.000115066
1.01859e-07
-0.000327391
9.1273e-05
4.93759e-08
-0.000354648
6.75307e-05
-1.68562e-07
-0.000390102
4.15488e-05
-8.49213e-07
-0.000435807
8.96117e-06
-2.18202e-06
-0.000488774
-4.60698e-05
-4.07899e-06
-0.000538246
-0.000142537
-8.38108e-06
-0.000529301
-0.00033765
-1.74958e-05
-0.000412821
-0.000574726
-3.06952e-05
-0.000904826
-7.90371e-05
-5.02326e-05
0.000306408
-1.782e-05
-9.81866e-05
0.000399844
-1.70796e-05
-0.000139611
0.000383925
-1.33295e-05
-0.000174374
0.000348093
-9.19283e-06
-0.000204465
0.000311515
-5.3567e-06
-0.000230477
0.000275768
-2.34781e-06
-0.000253094
0.00024195
-2.13609e-07
-0.000273031
0.000210433
1.08214e-06
-0.000291371
0.00018153
1.83067e-06
-0.000309418
0.000155437
2.13951e-06
-0.000329092
0.000132534
2.20672e-06
-0.000352894
0.000112911
2.16442e-06
-0.000384697
9.70812e-05
2.25262e-06
-0.000429899
8.39339e-05
2.81644e-06
-0.000496238
7.03406e-05
4.95985e-06
-0.000589559
3.75598e-05
9.6912e-06
-0.000709282
-4.05445e-05
1.77305e-05
-0.00077208
-0.000298341
2.34889e-05
-0.000661741
-0.000709999
2.49341e-05
-0.00148547
-8.10987e-05
-5.03015e-05
0.000387107
-3.03982e-05
-0.000119408
0.000490026
-2.10744e-05
-0.000170973
0.000450849
-1.53588e-05
-0.000210943
0.000395179
-7.11563e-06
-0.000241027
0.000342954
-1.35437e-06
-0.00026364
0.000295793
2.58773e-06
-0.000281424
0.000254706
5.0297e-06
-0.00029618
0.000218876
6.31315e-06
-0.000309294
0.000187803
6.8405e-06
-0.000321756
0.000160966
6.93341e-06
-0.000335229
0.000139025
6.98183e-06
-0.000351815
0.000122129
7.36825e-06
-0.000376941
0.000113259
8.94779e-06
-0.000419598
0.000113353
1.32385e-05
-0.000498625
0.000125794
2.35736e-05
-0.000633109
0.000125363
4.66804e-05
-0.000843749
7.99368e-05
9.01588e-05
-0.00098114
-0.000301491
0.00014054
-0.000850868
-0.00100883
0.000168562
-0.00227504
-6.1295e-05
-0.000182181
0.000616413
-4.7125e-05
-0.000212563
0.000566378
-4.59703e-05
-0.000228559
0.000497508
-3.06635e-05
-0.0002431
0.000425164
-1.54446e-05
-0.000250405
0.000352574
-2.3153e-06
-0.000254184
0.000293283
6.28862e-06
-0.000256342
0.000245452
1.1412e-05
-0.000257342
0.00020602
1.38553e-05
-0.000258011
0.000173895
1.4577e-05
-0.000258623
0.00014738
1.41977e-05
-0.000261311
0.000128084
1.36287e-05
-0.000266551
0.00011397
1.33999e-05
-0.000280155
0.000111245
1.56173e-05
-0.000306317
0.000116265
2.32502e-05
-0.000365265
0.000139555
4.51869e-05
-0.000470875
0.000138594
9.23801e-05
-0.000650021
7.10402e-05
0.000188042
-0.000823465
-0.000410838
0.000282792
-0.00071871
-0.00138759
0.000274004
-0.00284711
-0.000146642
-0.000383099
0.00111316
-0.000113643
-0.000297681
0.000531651
-5.06913e-05
-0.000180237
0.000400081
-2.00158e-05
-6.24133e-05
0.000296694
1.06456e-05
4.16189e-05
0.000220975
2.75666e-05
0.000128085
0.000169929
3.68888e-05
0.00019816
0.000135328
4.00484e-05
0.000254644
0.000110237
3.92985e-05
0.000299814
9.22231e-05
3.65029e-05
0.000337588
7.74226e-05
3.21834e-05
0.000369546
6.78303e-05
2.82957e-05
0.000399622
5.92362e-05
2.46576e-05
0.000431646
5.54218e-05
2.37993e-05
0.000465994
5.4255e-05
2.76613e-05
0.000513126
4.6826e-05
4.5597e-05
0.000532543
3.52496e-05
8.39268e-05
0.000509582
-8.55338e-05
0.000179535
0.000241106
-0.000449727
0.000307366
6.13208e-06
-0.00132687
0.000174248
-0.00247645
-0.000364526
0.00124497
-0.000131817
0.00189986
-0.000123232
0.00240621
-0.00010627
0.00278063
-7.77238e-05
0.00305028
-4.86753e-05
0.00324449
-2.429e-05
0.00338521
-5.38736e-06
0.00348802
7.42961e-06
0.00356316
1.70773e-05
0.00362137
1.92197e-05
0.00366652
2.26775e-05
0.00370741
1.83427e-05
0.00374357
1.9261e-05
0.00377968
1.81434e-05
0.00381057
1.59362e-05
0.00380694
3.88856e-05
0.00368848
3.29264e-05
0.00315682
8.19294e-05
0.0018248
5.15236e-06
-0.000651649
-5.90762e-06
6.00431e-06
-2.78753e-07
-1.58568e-05
1.01444e-05
-5.07671e-08
-2.62292e-05
1.05691e-05
3.57812e-08
-3.61426e-05
1.01003e-05
8.55075e-08
-4.52971e-05
9.3242e-06
9.82241e-08
-5.34741e-05
8.32833e-06
8.46115e-08
-6.04669e-05
7.12668e-06
5.14857e-08
-6.60782e-05
5.72711e-06
3.08927e-09
-7.01154e-05
4.14168e-06
-6.69541e-08
-7.24039e-05
2.38476e-06
-1.48932e-07
-7.27967e-05
4.76378e-07
-2.42156e-07
-7.11707e-05
-1.55526e-06
-3.43315e-07
-6.745e-05
-3.66024e-06
-4.52077e-07
-6.16207e-05
-5.77933e-06
-5.61221e-07
-5.37457e-05
-7.83627e-06
-6.62129e-07
-4.3982e-05
-9.73785e-06
-7.42829e-07
-3.26037e-05
-1.13653e-05
-7.85158e-07
-2.0095e-05
-1.25021e-05
-7.64683e-07
-7.71045e-06
-1.23714e-05
-6.70717e-07
-7.60004e-06
-2.92188e-07
-1.035e-05
1.63773e-05
-6.60889e-07
-2.60311e-05
2.59741e-05
-4.64478e-07
-4.21845e-05
2.68695e-05
-3.52974e-07
-5.75595e-05
2.5611e-05
-2.60745e-07
-7.16785e-05
2.35654e-05
-2.05563e-07
-8.41909e-05
2.09519e-05
-1.76298e-07
-9.47794e-05
1.78193e-05
-1.66154e-07
-0.000103151
1.42004e-05
-1.72959e-07
-0.000109041
1.01325e-05
-1.95868e-07
-0.000112211
5.65926e-06
-2.34874e-07
-0.000112473
8.49177e-07
-2.8943e-07
-0.000109671
-4.23881e-06
-3.59041e-07
-0.000103723
-9.4813e-06
-4.3718e-07
-9.46368e-05
-1.47311e-05
-5.18818e-07
-8.25283e-05
-1.98062e-05
-5.94991e-07
-6.76451e-05
-2.44822e-05
-6.52008e-07
-5.04011e-05
-2.84736e-05
-6.68461e-07
-3.15058e-05
-3.12611e-05
-6.17489e-07
-1.26907e-05
-3.1042e-05
-4.93111e-07
-2.00655e-05
-5.61694e-08
-1.15544e-05
2.79567e-05
-8.43842e-07
-2.89142e-05
4.3497e-05
-6.62643e-07
-4.67417e-05
4.48583e-05
-5.41924e-07
-6.36841e-05
4.27034e-05
-4.33642e-07
-7.92317e-05
3.92478e-05
-3.59917e-07
-9.3008e-05
3.48507e-05
-3.1072e-07
-0.000104673
2.9599e-05
-2.79671e-07
-0.000113915
2.35533e-05
-2.65365e-07
-0.00012045
1.67786e-05
-2.67963e-07
-0.000124027
9.35182e-06
-2.88049e-07
-0.000124433
1.37777e-06
-3.25417e-07
-0.000121473
-7.06665e-06
-3.7905e-07
-0.000115057
-1.57553e-05
-4.45126e-07
-0.000105167
-2.44703e-05
-5.18041e-07
-9.18979e-05
-3.29179e-05
-5.88034e-07
-7.5493e-05
-4.07281e-05
-6.40384e-07
-5.63845e-05
-4.74246e-05
-6.51295e-07
-3.53443e-05
-5.2141e-05
-5.91035e-07
-1.42938e-05
-5.19212e-05
-4.54802e-07
-3.40999e-05
1.34355e-08
-1.22763e-05
4.02769e-05
-1.01997e-06
-3.07589e-05
6.2176e-05
-8.54976e-07
-4.97287e-05
6.40212e-05
-7.25478e-07
-6.77641e-05
6.09179e-05
-6.02056e-07
-8.43387e-05
5.59835e-05
-5.12619e-07
-9.90669e-05
4.97245e-05
-4.46673e-07
-0.0001116
4.22674e-05
-3.98438e-07
-0.000121618
3.36994e-05
-3.67183e-07
-0.000128822
2.41097e-05
-3.53841e-07
-0.000132941
1.35999e-05
-3.5958e-07
-0.000133736
2.30962e-06
-3.84916e-07
-0.000130973
-9.68476e-06
-4.31308e-07
-0.000124492
-2.20788e-05
-4.92919e-07
-0.000114219
-3.45739e-05
-5.64814e-07
-0.000100196
-4.6764e-05
-6.37007e-07
-8.26186e-05
-5.81226e-05
-6.93103e-07
-6.19116e-05
-6.79477e-05
-7.05935e-07
-3.89079e-05
-7.4954e-05
-6.41217e-07
-1.57504e-05
-7.48734e-05
-4.91998e-07
-4.95474e-05
2.08415e-08
-1.31554e-05
5.35072e-05
-1.20574e-06
-3.30114e-05
8.22791e-05
-1.0547e-06
-5.3392e-05
8.46434e-05
-9.15372e-07
-7.27852e-05
8.05339e-05
-7.76287e-07
-9.06444e-05
7.40422e-05
-6.71309e-07
-0.000106576
6.58349e-05
-5.90169e-07
-0.000120227
5.6081e-05
-5.27518e-07
-0.000131269
4.48929e-05
-4.8336e-07
-0.000139391
3.23781e-05
-4.59386e-07
-0.000144296
1.86519e-05
-4.57593e-07
-0.000145701
3.86691e-06
-4.79509e-07
-0.000143323
-1.19018e-05
-5.25895e-07
-0.000136913
-2.83132e-05
-5.92688e-07
-0.000126297
-4.49992e-05
-6.7513e-07
-0.000111411
-6.14462e-05
-7.62286e-07
-9.23667e-05
-7.6952e-05
-8.35201e-07
-6.95519e-05
-9.05404e-05
-8.61204e-07
-4.38749e-05
-0.000100395
-7.97752e-07
-1.7803e-05
-0.000100688
-6.33517e-07
-6.69844e-05
-4.33713e-08
-1.43073e-05
6.79303e-05
-1.4253e-06
-3.5945e-05
0.00010423
-1.28777e-06
-5.81511e-05
0.000107153
-1.13584e-06
-7.92938e-05
0.000101955
-9.77957e-07
-9.88024e-05
9.37986e-05
-8.54823e-07
-0.000116278
8.35292e-05
-7.56633e-07
-0.000131365
7.13642e-05
-6.78658e-07
-0.000143735
5.74409e-05
-6.21817e-07
-0.000153067
4.18781e-05
-5.88768e-07
-0.00015904
2.479e-05
-5.82488e-07
-0.000161325
6.32069e-06
-6.05624e-07
-0.000159567
-1.34819e-05
-6.6014e-07
-0.000153397
-3.4287e-05
-7.42212e-07
-0.000142496
-5.56828e-05
-8.48146e-07
-0.000126631
-7.70707e-05
-9.66082e-07
-0.00010576
-9.75629e-05
-1.07351e-06
-8.0176e-05
-0.000115846
-1.12972e-06
-5.0857e-05
-0.000129409
-1.07858e-06
-2.07269e-05
-0.000130479
-8.99925e-07
-8.72432e-05
-1.98346e-07
-1.57685e-05
8.38672e-05
-1.70197e-06
-3.96495e-05
0.000128507
-1.5808e-06
-6.41385e-05
0.000132024
-1.4117e-06
-8.74527e-05
0.000125616
-1.22829e-06
-0.000108995
0.000115646
-1.0803e-06
-0.000128366
0.000103166
-9.58946e-07
-0.000145219
8.84498e-05
-8.60634e-07
-0.000159235
7.16631e-05
-7.87603e-07
-0.000170097
5.29281e-05
-7.43802e-07
-0.000177466
3.23401e-05
-7.33597e-07
-0.000180967
1.00044e-05
-7.61274e-07
-0.000180166
-1.40899e-05
-8.30794e-07
-0.000174537
-3.97005e-05
-9.39014e-07
-0.000163554
-6.64177e-05
-1.08464e-06
-0.000146728
-9.36137e-05
-1.25543e-06
-0.00012374
-0.000120232
-1.42466e-06
-9.46764e-05
-0.000144553
-1.54027e-06
-6.05304e-05
-0.000163152
-1.52443e-06
-2.48469e-05
-0.000165702
-1.33883e-06
-0.000111477
-4.75347e-07
-1.75763e-05
0.000101681
-2.0608e-06
-4.42152e-05
0.00015565
-1.96213e-06
-7.14823e-05
0.000159772
-1.76837e-06
-9.74094e-05
0.000151975
-1.54795e-06
-0.000121374
0.000139985
-1.3631e-06
-0.000142987
0.000125097
-1.20714e-06
-0.000161929
0.000107662
-1.07858e-06
-0.000177911
8.78768e-05
-9.81596e-07
-0.000190639
6.58604e-05
-9.21878e-07
-0.000199779
4.16697e-05
-9.05616e-07
-0.000204921
1.53337e-05
-9.39473e-07
-0.000205554
-1.32583e-05
-1.03067e-06
-0.000200959
-4.40671e-05
-1.17803e-06
-0.000190339
-7.67655e-05
-1.38508e-06
-0.000172817
-0.00011081
-1.64114e-06
-0.000147608
-0.000145054
-1.91591e-06
-0.00011437
-0.000177336
-2.14208e-06
-7.39511e-05
-0.000203036
-2.2087e-06
-3.0717e-05
-0.000208306
-2.03788e-06
-0.000141366
-9.52036e-07
-1.97886e-05
0.000121801
-2.53475e-06
-4.97723e-05
0.000186279
-2.46825e-06
-8.03596e-05
0.000190966
-2.23731e-06
-0.000109359
0.000181511
-1.96088e-06
-0.000136128
0.00016721
-1.71906e-06
-0.000160308
0.000149656
-1.50932e-06
-0.000181634
0.000129297
-1.3337e-06
-0.00019988
0.000106374
-1.19923e-06
-0.000214812
8.10006e-05
-1.1138e-06
-0.000226135
5.31749e-05
-1.08578e-06
-0.000233434
2.28066e-05
-1.12499e-06
-0.00023615
-1.03597e-05
-1.24389e-06
-0.00023335
-4.66484e-05
-1.44519e-06
-0.0002239
-8.59402e-05
-1.74215e-06
-0.000206372
-0.000127986
-2.13022e-06
-0.000179226
-0.000171754
-2.57949e-06
-0.000141285
-0.000214719
-3.00545e-06
-9.28639e-05
-0.00025076
-3.2491e-06
-3.93476e-05
-0.000260965
-3.14645e-06
-0.000179561
-1.78057e-06
-2.24989e-05
0.00014476
-3.17182e-06
-5.65191e-05
0.000221131
-3.15081e-06
-9.1029e-05
0.000226247
-2.86116e-06
-0.000123572
0.000214723
-2.49708e-06
-0.000153504
0.000197696
-2.16514e-06
-0.000180529
0.000177121
-1.87043e-06
-0.000204475
0.000153582
-1.62082e-06
-0.000225228
0.000127381
-1.4272e-06
-0.000242667
9.86296e-05
-1.29981e-06
-0.000256594
6.72491e-05
-1.24891e-06
-0.000266649
3.29906e-05
-1.28633e-06
-0.000272278
-4.58593e-06
-1.42791e-06
-0.000272378
-4.6381e-05
-1.70637e-06
-0.00026543
-9.26557e-05
-2.12875e-06
-0.000249282
-0.000143802
-2.71213e-06
-0.000221242
-0.00019933
-3.44013e-06
-0.000178601
-0.000256724
-4.21754e-06
-0.00012027
-0.000308229
-4.8239e-06
-5.27051e-05
-0.000327395
-4.91732e-06
-0.000230703
-3.26025e-06
-2.58637e-05
0.000171262
-4.04602e-06
-6.47653e-05
0.000261115
-4.08665e-06
-0.000103876
0.000266343
-3.70017e-06
-0.000140438
0.000252119
-3.19505e-06
-0.000173841
0.000231766
-2.71836e-06
-0.0002039
0.000207683
-2.28871e-06
-0.000230596
0.000180634
-1.92314e-06
-0.000253989
0.000151006
-1.63732e-06
-0.000274144
0.00011892
-1.44324e-06
-0.000291045
8.42157e-05
-1.35198e-06
-0.000304478
4.64494e-05
-1.37565e-06
-0.000314043
4.9884e-06
-1.52303e-06
-0.000318537
-4.18544e-05
-1.90024e-06
-0.000316139
-9.49549e-05
-2.4785e-06
-0.000303855
-0.00015588
-3.33067e-06
-0.000277369
-0.000225447
-4.48154e-06
-0.00023137
-0.000302117
-5.85463e-06
-0.000161597
-0.000377049
-7.17749e-06
-7.49578e-05
-0.000412611
-7.75993e-06
-0.000303686
-6.00768e-06
-3.01539e-05
0.000202304
-5.27618e-06
-7.5005e-05
0.000307388
-5.3934e-06
-0.000119484
0.000312088
-4.84131e-06
-0.000160517
0.000294191
-4.10379e-06
-0.000197603
0.000269645
-3.3919e-06
-0.000230742
0.000241378
-2.74785e-06
-0.000260144
0.00021038
-2.20231e-06
-0.000286127
0.000177154
-1.77574e-06
-0.000309031
0.000141847
-1.47943e-06
-0.000329141
0.000104239
-1.32248e-06
-0.000346567
6.37145e-05
-1.31936e-06
-0.000361022
1.92411e-05
-1.50806e-06
-0.000371839
-3.1265e-05
-1.91556e-06
-0.000376946
-9.00403e-05
-2.6479e-06
-0.000372641
-0.000160302
-3.82701e-06
-0.000352643
-0.000245411
-5.56473e-06
-0.000307634
-0.000346819
-7.8874e-06
-0.000227162
-0.000456744
-1.0552e-05
-0.000115724
-0.000522484
-1.23121e-05
-0.000417305
-1.12693e-05
-3.58644e-05
0.000239396
-7.06149e-06
-8.80368e-05
0.000361437
-7.25954e-06
-0.000138735
0.000364418
-6.41366e-06
-0.000184622
0.000341372
-5.28335e-06
-0.000225438
0.000311393
-4.18515e-06
-0.000261482
0.000278009
-3.20093e-06
-0.000293292
0.000242474
-2.37966e-06
-0.000321533
0.000205425
-1.74414e-06
-0.00034692
0.000167059
-1.29747e-06
-0.000370152
0.000127137
-1.03645e-06
-0.000391827
8.49263e-05
-9.65007e-07
-0.000412241
3.90903e-05
-1.11249e-06
-0.000431441
-1.26945e-05
-1.53273e-06
-0.000447862
-7.43557e-05
-2.36248e-06
-0.000457815
-0.000151131
-3.83358e-06
-0.000453332
-0.000250638
-6.23569e-06
-0.000419928
-0.000380753
-9.88654e-06
-0.000336488
-0.000540189
-1.48247e-05
-0.000197432
-0.000660402
-1.93067e-05
-0.000613486
-2.20698e-05
-4.40056e-05
0.000285087
-9.73615e-06
-0.000105324
0.000425242
-9.96733e-06
-0.000163043
0.000424242
-8.60252e-06
-0.000213942
0.000393877
-6.80155e-06
-0.000258254
0.000356786
-5.0623e-06
-0.000296699
0.000317039
-3.53745e-06
-0.000330261
0.000276191
-2.29957e-06
-0.00036004
0.000235007
-1.36522e-06
-0.000387212
0.000193754
-7.13082e-07
-0.000413013
0.000152235
-3.10059e-07
-0.000438755
0.000109768
-1.25575e-07
-0.000465727
6.49555e-05
-1.53774e-07
-0.000494601
1.48492e-05
-4.29308e-07
-0.000526544
-4.39305e-05
-1.02458e-06
-0.000559368
-0.000120152
-2.48823e-06
-0.0005852
-0.000226938
-5.23179e-06
-0.000585529
-0.000382585
-1.0157e-05
-0.000520534
-0.000606925
-1.82209e-05
-0.00035821
-0.000823076
-2.82373e-05
-0.000974241
-4.31883e-05
-5.48273e-05
0.00034203
-1.40147e-05
-0.0001279
0.000501565
-1.39684e-05
-0.00019399
0.000493053
-1.16292e-05
-0.000250098
0.000452012
-8.63288e-06
-0.000297339
0.000405301
-5.84516e-06
-0.000337189
0.000357451
-3.48847e-06
-0.000371329
0.000310292
-1.64852e-06
-0.000401395
0.000264566
-3.182e-07
-0.000429039
0.000220507
6.16697e-07
-0.000456004
0.000177992
1.23363e-06
-0.000484281
0.000136516
1.63145e-06
-0.000516297
9.51077e-05
1.91391e-06
-0.000555886
5.21366e-05
2.1323e-06
-0.000607021
4.31395e-06
2.04228e-06
-0.000671247
-5.96677e-05
1.55925e-06
-0.000746416
-0.000156009
1.60768e-07
-0.000816482
-0.000317124
-3.77548e-06
-0.000805281
-0.000622383
-1.3239e-05
-0.000620871
-0.00100897
-2.9211e-05
-0.00160402
-7.01285e-05
-8.3815e-05
0.000428458
-2.04328e-05
-0.000166479
0.000587941
-2.07915e-05
-0.000236886
0.00056668
-1.65498e-05
-0.000294763
0.000512252
-1.1556e-05
-0.000342954
0.00045494
-6.80502e-06
-0.000382843
0.000397896
-2.9033e-06
-0.000416153
0.000343383
5.22963e-09
-0.000444821
0.000292323
1.99314e-06
-0.00047098
0.000245244
3.25276e-06
-0.000497036
0.000202166
4.02101e-06
-0.000526066
0.0001632
4.55183e-06
-0.000561684
0.000127795
5.09468e-06
-0.000609251
9.59426e-05
6.01416e-06
-0.00067516
6.52689e-05
7.77017e-06
-0.000770671
2.98113e-05
1.09926e-05
-0.000899864
-3.33565e-05
1.62317e-05
-0.00105382
-0.00016816
2.27232e-05
-0.00110518
-0.000573029
2.54899e-05
-0.000862576
-0.00124212
1.54797e-05
-0.0024727
-7.49976e-05
-7.66215e-05
0.000506732
-3.20504e-05
-0.000194799
0.000711944
-2.68991e-05
-0.000286239
0.000662941
-2.01806e-05
-0.00035415
0.00058411
-1.10631e-05
-0.000403173
0.000506517
-3.90838e-06
-0.000438049
0.000433939
1.42125e-06
-0.000463663
0.000369081
4.94532e-06
-0.000483869
0.00031171
7.13311e-06
-0.000501597
0.000261431
8.38099e-06
-0.000518981
0.000217393
9.09071e-06
-0.000539021
0.000180446
9.77515e-06
-0.000565023
0.000150199
1.09676e-05
-0.0006043
0.000130502
1.36654e-05
-0.000667331
0.000122195
1.93429e-05
-0.000774064
0.00012933
3.07883e-05
-0.00092781
0.000114438
5.26318e-05
-0.00112641
3.12468e-05
8.93526e-05
-0.00117958
-0.000507189
0.00012787
-0.000824648
-0.00155391
0.000125424
-0.00328437
-7.4268e-05
-0.000219721
0.000726193
-4.68657e-05
-0.000303293
0.00079733
-4.77839e-05
-0.000366695
0.000729705
-3.40249e-05
-0.000413759
0.000634747
-1.90186e-05
-0.000435815
0.000531833
-5.57586e-06
-0.000442673
0.00044299
4.0959e-06
-0.000441103
0.000368605
1.03172e-05
-0.000435233
0.000305872
1.3824e-05
-0.000428648
0.000253957
1.54651e-05
-0.000423079
0.000210096
1.59258e-05
-0.000422619
0.000177408
1.62073e-05
-0.000427675
0.000151547
1.71076e-05
-0.000444859
0.00014253
2.07728e-05
-0.000472721
0.000143362
2.99457e-05
-0.000522038
0.000171903
5.19312e-05
-0.000578063
0.00016829
9.45528e-05
-0.000619949
8.84749e-05
0.0001727
-0.00062665
-0.000464589
0.000246894
-0.000308758
-0.00180769
0.000209896
-0.00358645
-0.000153323
-0.000636803
0.00134105
-9.17008e-05
-0.000590135
0.000754901
-5.49294e-05
-0.000465838
0.000615333
-2.99403e-05
-0.000302531
0.000484305
-2.21904e-06
-0.000137697
0.00038019
1.4376e-05
1.50316e-05
0.00030161
2.554e-05
0.000149496
0.000242706
3.14825e-05
0.000265353
0.000195945
3.33692e-05
0.000362657
0.000160255
3.29016e-05
0.000444483
0.000129876
3.05764e-05
0.000512874
0.000109037
2.82761e-05
0.000571356
9.15945e-05
2.61278e-05
0.00063035
8.04513e-05
2.68839e-05
0.000690221
7.88639e-05
3.22883e-05
0.000790897
6.66655e-05
5.01587e-05
0.000900009
5.80257e-05
8.50792e-05
0.00106264
-5.43222e-05
0.000159706
0.0010968
-0.000451649
0.000260263
0.000794403
-0.00148149
0.000150439
-0.00285105
-0.000305523
0.00131302
-0.000103782
0.0020496
-0.000104914
0.00265427
-9.56035e-05
0.00313721
-7.63584e-05
0.00352242
-5.36963e-05
0.00383179
-3.20575e-05
0.00408215
-1.30413e-05
0.00428448
1.05085e-06
0.00444964
1.21699e-05
0.0045822
1.65365e-05
0.00469263
2.12799e-05
0.00478326
1.93136e-05
0.00486284
2.01302e-05
0.00493829
2.15603e-05
0.00500279
1.80985e-05
0.00506301
3.66912e-05
0.00500831
3.33036e-05
0.00458607
5.25249e-05
0.00307938
3.03482e-05
-0.000423318
-6.2629e-06
6.2968e-06
-3.1266e-07
-1.68393e-05
1.07694e-05
-2.4369e-07
-2.78541e-05
1.12343e-05
-1.83776e-07
-3.83613e-05
1.07272e-05
-1.34416e-07
-4.80437e-05
9.88801e-06
-1.0748e-07
-5.66735e-05
8.814e-06
-9.95235e-08
-6.4036e-05