/*--------------------------------*- C++ -*----------------------------------*\
  =========                 |
  \\      /  F ield         | OpenFOAM: The Open Source CFD Toolbox
   \\    /   O peration     | Website:  https://openfoam.org
    \\  /    A nd           | Version:  10
     \\/     M anipulation  |
\*---------------------------------------------------------------------------*/
FoamFile
{
    format      ascii;
    class       volScalarField;
    location    "6.1";
    object      p;
}
// * * * * * * * * * * * * * * * * * * * * * * * * * * * * * * * * * * * * * //

dimensions      [0 2 -2 0 0 0 0];

internalField   nonuniform List<scalar> 
475
(
-0.0581882
-0.083543
-0.113003
-0.136624
-0.159431
-0.0839665
-0.0972547
-0.113463
-0.132523
-0.149489
-0.0820118
-0.0914522
-0.106309
-0.123801
-0.140181
-0.0814067
-0.0921908
-0.106885
-0.12244
-0.135926
-0.0515682
-0.0784027
-0.102047
-0.119644
-0.132381
-0.177578
-0.187653
-0.191961
-0.195819
-0.202003
-0.210805
-0.2196
-0.224975
-0.225093
-0.219373
-0.207995
-0.192037
-0.173715
-0.155524
-0.138667
-0.123392
-0.111141
-0.104212
-0.101643
-0.100259
-0.0980649
-0.0928142
-0.0836126
-0.0726989
-0.0620208
-0.051533
-0.0406789
-0.0294941
-0.0192621
-0.0114624
-0.00634149
-0.00300386
-0.000183288
0.00278713
0.00571952
0.00805451
0.00939929
0.00972862
0.00925717
0.00825955
0.00695773
0.00549824
0.00396206
0.00238985
0.000796958
-0.165942
-0.177598
-0.18396
-0.186978
-0.189224
-0.191604
-0.193471
-0.193265
-0.190514
-0.184852
-0.176536
-0.166638
-0.156687
-0.147552
-0.138775
-0.130496
-0.124572
-0.122139
-0.121942
-0.121345
-0.118627
-0.111635
-0.100168
-0.0865355
-0.0725238
-0.0587095
-0.0452126
-0.0322847
-0.0208544
-0.0120841
-0.00608366
-0.00188878
0.00167032
0.00512211
0.00825325
0.0105685
0.0117594
0.011845
0.0110678
0.00973027
0.00808711
0.00630847
0.00449082
0.00267743
0.000893806
-0.153479
-0.163161
-0.168888
-0.171445
-0.17175
-0.170695
-0.168333
-0.164605
-0.159742
-0.154321
-0.14995
-0.147548
-0.147666
-0.1453
-0.138557
-0.134671
-0.13564
-0.136891
-0.136489
-0.133769
-0.127581
-0.117874
-0.104082
-0.0889006
-0.0737169
-0.0589737
-0.0446383
-0.0313067
-0.0199395
-0.0111558
-0.00478135
-4.1883e-05
0.00388229
0.00737993
0.0103317
0.0124005
0.0133725
0.0132734
0.0123135
0.0107685
0.00889991
0.00688726
0.00486032
0.00286908
0.000937138
-0.146697
-0.154379
-0.158998
-0.160711
-0.159443
-0.155935
-0.15015
-0.142914
-0.134607
-0.128144
-0.125409
-0.131032
-0.145702
-0.148679
-0.134878
-0.123
-0.124077
-0.132679
-0.138881
-0.139185
-0.13369
-0.121758
-0.106202
-0.089108
-0.0723925
-0.0566172
-0.0421946
-0.0294719
-0.0188041
-0.0103895
-0.003978
0.00101114
0.00513051
0.00863808
0.0114567
0.0133581
0.0141958
0.0140007
0.0129584
0.0113157
0.00933903
0.00721116
0.00505462
0.00296329
0.000946862
-0.141928
-0.148735
-0.152966
-0.154088
-0.152143
-0.147183
-0.139826
-0.130645
-0.121131
-0.113572
-0.111209
-0.120334
-0.138373
-0.148177
-0.145915
-0.139624
-0.135315
-0.13425
-0.134485
-0.131873
-0.125081
-0.114349
-0.100377
-0.084816
-0.0691392
-0.0541795
-0.0404462
-0.028319
-0.018115
-0.00991222
-0.00347634
0.00162673
0.00580975
0.00926646
0.0119454
0.0136861
0.0143873
0.0140929
0.0129858
0.0113089
0.00929412
0.00715781
0.00501353
0.00292701
0.00092298
-0.204717
-0.205858
-0.207726
-0.210026
-0.215743
-0.225643
-0.237327
-0.246689
-0.249745
-0.244255
-0.229443
-0.205747
-0.174767
-0.139282
-0.102903
-0.0691772
-0.0404753
-0.0181395
-0.00279635
0.00609828
0.00988894
0.0101638
0.00846906
0.00612541
0.00399366
0.00231741
0.00122002
9.54625e-05
-0.00150788
-0.00339897
-0.00534878
-0.00675254
-0.00735406
-0.00706947
-0.00606429
-0.00446756
-0.00257381
-0.000663381
0.000976062
0.0021436
0.00275249
0.00282579
0.00243663
0.00168743
0.000670317
-0.197795
-0.20035
-0.203321
-0.20874
-0.217647
-0.230436
-0.24375
-0.254009
-0.257882
-0.253412
-0.239673
-0.216312
-0.185084
-0.148824
-0.111198
-0.0766183
-0.0472163
-0.0242673
-0.0083551
0.00103286
0.00534523
0.006192
0.00497241
0.00317548
0.00201375
0.00151417
0.000583903
-0.00111432
-0.00306098
-0.00480875
-0.00563138
-0.0057408
-0.00564669
-0.00555415
-0.00512355
-0.00409429
-0.00247458
-0.00061742
0.00104754
0.00223756
0.00284428
0.00289648
0.00248396
0.00170851
0.000673848
-0.206577
-0.205041
-0.205793
-0.210269
-0.220629
-0.235213
-0.249647
-0.260948
-0.265302
-0.260818
-0.246771
-0.223405
-0.192798
-0.157429
-0.120916
-0.0874317
-0.0591022
-0.0368944
-0.0215538
-0.0124995
-0.00808974
-0.00666046
-0.00684201
-0.00752785
-0.00782658
-0.00742207
-0.00660897
-0.00576852
-0.00521079
-0.00469969
-0.00423419
-0.00396201
-0.00387025
-0.00379292
-0.00331258
-0.00227998
-0.000834826
0.00070709
0.00203871
0.00291829
0.00327727
0.00314144
0.00259641
0.00173402
0.000649886
-0.193689
-0.195909
-0.197851
-0.203826
-0.214554
-0.229021
-0.24325
-0.254227
-0.259052
-0.25604
-0.24394
-0.222458
-0.194334
-0.16264
-0.130149
-0.100556
-0.0759898
-0.0568763
-0.0438599
-0.036335
-0.0321664
-0.029624
-0.0277189
-0.0257163
-0.0232022
-0.0199922
-0.0163271
-0.0127014
-0.00967709
-0.00729245
-0.005377
-0.00379185
-0.00243344
-0.00116515
7.19407e-05
0.00130329
0.00249975
0.00350526
0.00415013
0.0043863
0.004221
0.00370944
0.00289463
0.00185435
0.000647906
-0.228275
-0.206302
-0.203575
-0.204699
-0.212242
-0.225146
-0.237892
-0.24668
-0.249478
-0.24515
-0.233185
-0.213681
-0.189252
-0.163085
-0.1372
-0.113779
-0.0951126
-0.0821875
-0.0740044
-0.0690915
-0.0655575
-0.0615572
-0.056335
-0.0501278
-0.0434894
-0.0364793
-0.0287625
-0.0211596
-0.0146492
-0.00971243
-0.00630297
-0.00380651
-0.00158409
0.00069715
0.00294308
0.00486412
0.00617531
0.00679439
0.00680252
0.00635691
0.005581
0.00456343
0.00337852
0.00208441
0.000698747
)
;

boundaryField
{
    inlet
    {
        type            zeroGradient;
    }
    outlet
    {
        type            fixedValue;
        value           uniform 0;
    }
    upperWall
    {
        type            zeroGradient;
    }
    lowerWall
    {
        type            zeroGradient;
    }
    frontAndBack
    {
        type            empty;
    }
}


// ************************************************************************* //
