/*--------------------------------*- C++ -*----------------------------------*\
  =========                 |
  \\      /  F ield         | OpenFOAM: The Open Source CFD Toolbox
   \\    /   O peration     | Website:  https://openfoam.org
    \\  /    A nd           | Version:  10
     \\/     M anipulation  |
\*---------------------------------------------------------------------------*/
FoamFile
{
    format      ascii;
    class       volVectorField;
    location    "5.95";
    object      U;
}
// * * * * * * * * * * * * * * * * * * * * * * * * * * * * * * * * * * * * * //

dimensions      [0 1 -1 0 0 0 0];

internalField   nonuniform List<vector> 
475
(
(0.974317 0.0159277 0)
(0.976112 0.00657092 0)
(0.950004 0.0312693 0)
(0.95534 0.00116805 0)
(0.919747 0.0301594 0)
(0.998593 0.00858713 0)
(1.01417 0.0148305 0)
(1.02502 0.0153162 0)
(1.04365 0.00798201 0)
(1.05596 0.00237302 0)
(1.00006 -3.99152e-05 0)
(1.00958 -0.00266849 0)
(1.02445 -0.00461194 0)
(1.04073 -0.009713 0)
(1.05674 -0.0142738 0)
(0.999727 -0.010159 0)
(1.01021 -0.0193021 0)
(1.02255 -0.0221843 0)
(1.0354 -0.0229705 0)
(1.04451 -0.0260881 0)
(0.980519 -0.00948639 0)
(0.96952 -0.0193492 0)
(0.953219 -0.0218195 0)
(0.933937 -0.0221477 0)
(0.90697 -0.0233578 0)
(0.925956 -0.0166728 0)
(0.932334 -0.0342813 0)
(0.937057 -0.045387 0)
(0.944195 -0.0535286 0)
(0.956213 -0.0615598 0)
(0.975336 -0.0768798 0)
(0.998882 -0.0983085 0)
(1.02455 -0.125856 0)
(1.04813 -0.157658 0)
(1.06936 -0.190683 0)
(1.08403 -0.223734 0)
(1.09062 -0.251922 0)
(1.08984 -0.272343 0)
(1.07975 -0.283306 0)
(1.062 -0.281674 0)
(1.03552 -0.268786 0)
(1.00181 -0.248511 0)
(0.967986 -0.219498 0)
(0.933589 -0.18255 0)
(0.900049 -0.142885 0)
(0.869329 -0.10204 0)
(0.83602 -0.061675 0)
(0.802973 -0.0261031 0)
(0.776005 0.00357173 0)
(0.754786 0.0269079 0)
(0.735942 0.0454411 0)
(0.717546 0.0610435 0)
(0.699811 0.0717296 0)
(0.684021 0.0754407 0)
(0.67102 0.0750279 0)
(0.661179 0.0757005 0)
(0.654603 0.079353 0)
(0.650963 0.0833292 0)
(0.649248 0.0836069 0)
(0.648179 0.0782114 0)
(0.646793 0.0677852 0)
(0.644781 0.0545905 0)
(0.642385 0.0409273 0)
(0.640042 0.0286325 0)
(0.638074 0.018492 0)
(0.636574 0.0109872 0)
(0.635571 0.00565287 0)
(0.634891 0.00238444 0)
(0.634551 0.000428008 0)
(0.634205 -0.000540276 0)
(1.06841 -0.00894107 0)
(1.07782 -0.0208014 0)
(1.08362 -0.0327097 0)
(1.08617 -0.0433746 0)
(1.08976 -0.0558208 0)
(1.09363 -0.0733043 0)
(1.09733 -0.0957019 0)
(1.09825 -0.12447 0)
(1.09548 -0.155084 0)
(1.08737 -0.187949 0)
(1.07056 -0.218381 0)
(1.04737 -0.242535 0)
(1.0159 -0.256592 0)
(0.978497 -0.256868 0)
(0.933616 -0.247756 0)
(0.880916 -0.232092 0)
(0.825522 -0.20724 0)
(0.771087 -0.171261 0)
(0.719831 -0.132034 0)
(0.672546 -0.0938284 0)
(0.630999 -0.0558811 0)
(0.591428 -0.0213349 0)
(0.554987 0.00510053 0)
(0.525068 0.0254133 0)
(0.499758 0.0462824 0)
(0.478918 0.0675953 0)
(0.465656 0.0833681 0)
(0.461971 0.0892608 0)
(0.466404 0.0864934 0)
(0.475643 0.0805729 0)
(0.48725 0.0765573 0)
(0.500558 0.0757366 0)
(0.515708 0.0759114 0)
(0.532405 0.0739385 0)
(0.549618 0.068045 0)
(0.566035 0.0583846 0)
(0.58062 0.0465419 0)
(0.592819 0.0343446 0)
(0.602491 0.0234213 0)
(0.609804 0.0144905 0)
(0.615037 0.00802468 0)
(0.61861 0.00353255 0)
(0.620898 0.00100386 0)
(0.622222 -0.000508595 0)
(0.623104 -0.000982587 0)
(1.06792 -0.0222067 0)
(1.0774 -0.0320347 0)
(1.08108 -0.0447277 0)
(1.08231 -0.055491 0)
(1.08056 -0.068947 0)
(1.07667 -0.0836488 0)
(1.07019 -0.102578 0)
(1.05855 -0.124924 0)
(1.04321 -0.149457 0)
(1.01995 -0.176971 0)
(0.991045 -0.198982 0)
(0.954876 -0.218182 0)
(0.908676 -0.220161 0)
(0.85748 -0.205275 0)
(0.788519 -0.190211 0)
(0.710731 -0.176282 0)
(0.636 -0.157248 0)
(0.560786 -0.127369 0)
(0.491641 -0.0899977 0)
(0.431309 -0.04935 0)
(0.383117 -0.0130543 0)
(0.34608 0.0168219 0)
(0.316221 0.0419738 0)
(0.294293 0.0617723 0)
(0.28345 0.0747369 0)
(0.284942 0.0804714 0)
(0.297859 0.0795147 0)
(0.318656 0.0733574 0)
(0.342718 0.0648903 0)
(0.366752 0.0575165 0)
(0.389874 0.0533145 0)
(0.412961 0.0520034 0)
(0.437119 0.0514817 0)
(0.462449 0.0493855 0)
(0.487876 0.0444942 0)
(0.511753 0.0370181 0)
(0.532609 0.0281954 0)
(0.54957 0.0194194 0)
(0.562392 0.0118893 0)
(0.571437 0.00606281 0)
(0.577242 0.00219966 0)
(0.580775 -0.000237071 0)
(0.582492 -0.00123669 0)
(0.583407 -0.00181085 0)
(0.583372 -0.0014674 0)
(1.04966 -0.0297555 0)
(1.05209 -0.0363831 0)
(1.04729 -0.043551 0)
(1.04118 -0.0503613 0)
(1.0256 -0.0590722 0)
(1.00993 -0.0677467 0)
(0.983068 -0.0806849 0)
(0.952384 -0.0938928 0)
(0.910227 -0.111756 0)
(0.857589 -0.129377 0)
(0.797218 -0.146251 0)
(0.718087 -0.161866 0)
(0.640069 -0.152719 0)
(0.554691 -0.130282 0)
(0.422439 -0.100222 0)
(0.278327 -0.056311 0)
(0.173611 -0.0219115 0)
(0.102894 -0.00712312 0)
(0.0618877 0.00176705 0)
(0.0420578 0.0129785 0)
(0.0370999 0.0265181 0)
(0.0450972 0.0396307 0)
(0.0632874 0.0488752 0)
(0.0884959 0.0534025 0)
(0.118854 0.0536816 0)
(0.15289 0.05109 0)
(0.18835 0.046559 0)
(0.222742 0.0410084 0)
(0.254268 0.0355435 0)
(0.282451 0.0311861 0)
(0.308202 0.0283552 0)
(0.332925 0.0265902 0)
(0.357462 0.0248626 0)
(0.381623 0.0222353 0)
(0.404332 0.0183929 0)
(0.424185 0.0137087 0)
(0.440133 0.00895339 0)
(0.451794 0.00483135 0)
(0.459464 0.00177751 0)
(0.463896 -0.000209173 0)
(0.4659 -0.00124012 0)
(0.466442 -0.00166714 0)
(0.465938 -0.00156735 0)
(0.465454 -0.00145505 0)
(0.464175 -0.000939122 0)
(0.880174 -0.0236908 0)
(0.848183 -0.0271391 0)
(0.814276 -0.0277888 0)
(0.775963 -0.0319079 0)
(0.730573 -0.0333394 0)
(0.683711 -0.0382439 0)
(0.621715 -0.0429163 0)
(0.560833 -0.0483682 0)
(0.476123 -0.0594541 0)
(0.390042 -0.0628658 0)
(0.28032 -0.0839013 0)
(0.141084 -0.0723577 0)
(0.0388311 -0.0118338 0)
(-0.0227871 0.0364544 0)
(-0.0513795 0.0550111 0)
(-0.0627994 0.0362686 0)
(-0.0704954 0.00190441 0)
(-0.0826677 -0.0198921 0)
(-0.0971092 -0.0246926 0)
(-0.10556 -0.0195211 0)
(-0.103872 -0.0102347 0)
(-0.091221 -0.00122989 0)
(-0.0694501 0.00514176 0)
(-0.0418902 0.00834465 0)
(-0.0117425 0.00942816 0)
(0.0184051 0.00928493 0)
(0.0466883 0.00843731 0)
(0.0721024 0.00732314 0)
(0.0942644 0.00618189 0)
(0.113499 0.00519173 0)
(0.130582 0.00441539 0)
(0.14627 0.00376365 0)
(0.160892 0.00311132 0)
(0.174184 0.00238593 0)
(0.185517 0.00160525 0)
(0.194316 0.000872218 0)
(0.200383 0.000293187 0)
(0.203939 -9.08169e-05 0)
(0.205511 -0.000295996 0)
(0.205725 -0.00038608 0)
(0.205176 -0.000401337 0)
(0.204291 -0.000368758 0)
(0.203327 -0.000296732 0)
(0.202535 -0.000232992 0)
(0.201565 -0.00013676 0)
(0.0050091 -0.0322858 0)
(0.0064996 -0.0306984 0)
(-0.00789545 -0.00888639 0)
(-0.0538967 0.0253582 0)
(-0.1307 0.0433746 0)
(-0.208948 0.0440597 0)
(-0.274952 0.0380321 0)
(-0.325651 0.0302108 0)
(-0.357409 0.0215671 0)
(-0.370514 0.012224 0)
(-0.366074 0.00209986 0)
(-0.344189 -0.00787524 0)
(-0.306499 -0.0169679 0)
(-0.255308 -0.0241691 0)
(-0.193815 -0.0294971 0)
(-0.12638 -0.0313599 0)
(-0.0569748 -0.0315292 0)
(0.0116201 -0.0299616 0)
(0.0766085 -0.0265952 0)
(0.13498 -0.0222886 0)
(0.184781 -0.0174403 0)
(0.225101 -0.0124311 0)
(0.256163 -0.00769561 0)
(0.27849 -0.00288455 0)
(0.291636 0.00373532 0)
(0.2947 0.0130273 0)
(0.2874 0.0215414 0)
(0.271246 0.0231877 0)
(0.249733 0.0175786 0)
(0.227094 0.00890071 0)
(0.206816 0.00167189 0)
(0.190938 -0.00218674 0)
(0.180186 -0.0032454 0)
(0.174291 -0.00309048 0)
(0.172468 -0.00271224 0)
(0.173652 -0.00251959 0)
(0.176711 -0.00233583 0)
(0.180691 -0.00207083 0)
(0.184821 -0.00173498 0)
(0.188602 -0.00136955 0)
(0.191762 -0.00101815 0)
(0.19425 -0.000725584 0)
(0.196134 -0.000488511 0)
(0.197416 -0.000332054 0)
(0.198684 -0.000176838 0)
(-0.00536112 0.0229734 0)
(-0.0411116 0.0462925 0)
(-0.0980912 0.0754927 0)
(-0.146219 0.0990366 0)
(-0.191058 0.104094 0)
(-0.222363 0.0938202 0)
(-0.244264 0.0739063 0)
(-0.252878 0.0506949 0)
(-0.248875 0.0244188 0)
(-0.232115 -0.00243412 0)
(-0.201476 -0.0295716 0)
(-0.158204 -0.0549367 0)
(-0.102029 -0.0771859 0)
(-0.0365807 -0.0946912 0)
(0.0370198 -0.105677 0)
(0.114932 -0.110534 0)
(0.191044 -0.110105 0)
(0.264202 -0.104961 0)
(0.332196 -0.0958712 0)
(0.392365 -0.0838451 0)
(0.443561 -0.0698557 0)
(0.484606 -0.055562 0)
(0.515271 -0.0421452 0)
(0.536802 -0.0295271 0)
(0.550708 -0.0181134 0)
(0.559393 -0.00807941 0)
(0.564034 0.00223968 0)
(0.566447 0.0137354 0)
(0.567564 0.025393 0)
(0.563811 0.0339531 0)
(0.551034 0.0357099 0)
(0.529271 0.0301161 0)
(0.503291 0.0205057 0)
(0.479119 0.0107367 0)
(0.460683 0.00296548 0)
(0.449236 -0.00237144 0)
(0.444045 -0.0054275 0)
(0.44321 -0.00664307 0)
(0.444853 -0.00656427 0)
(0.447578 -0.00580181 0)
(0.450544 -0.00469934 0)
(0.453154 -0.00365798 0)
(0.455528 -0.00261897 0)
(0.457 -0.00198455 0)
(0.458954 -0.00113984 0)
(-0.0314272 0.00464589 0)
(-0.0614772 0.0558122 0)
(-0.0634231 0.0837098 0)
(-0.057806 0.10531 0)
(-0.0450642 0.109387 0)
(-0.0261702 0.094147 0)
(-0.00502563 0.0668753 0)
(0.0181854 0.0355437 0)
(0.048492 0.00257213 0)
(0.087001 -0.0328171 0)
(0.13615 -0.0703591 0)
(0.192214 -0.106325 0)
(0.254506 -0.138313 0)
(0.32102 -0.163861 0)
(0.388553 -0.178453 0)
(0.454899 -0.184385 0)
(0.517416 -0.182324 0)
(0.575229 -0.17214 0)
(0.626742 -0.155352 0)
(0.669495 -0.134626 0)
(0.702991 -0.110812 0)
(0.727844 -0.0847488 0)
(0.743962 -0.0605893 0)
(0.751606 -0.0409692 0)
(0.752796 -0.0227471 0)
(0.749108 -0.00336942 0)
(0.740534 0.0124931 0)
(0.729193 0.0210642 0)
(0.719426 0.0248253 0)
(0.713607 0.0296601 0)
(0.709088 0.0378066 0)
(0.700714 0.0452362 0)
(0.685268 0.0462388 0)
(0.663642 0.0391683 0)
(0.639947 0.0268795 0)
(0.618535 0.0139434 0)
(0.601846 0.00363245 0)
(0.590368 -0.00299228 0)
(0.58335 -0.00619686 0)
(0.579555 -0.00711784 0)
(0.577961 -0.00661655 0)
(0.577489 -0.00574006 0)
(0.577891 -0.00440816 0)
(0.578204 -0.00362814 0)
(0.579245 -0.00223681 0)
(-0.0246664 0.138839 0)
(-0.0104096 0.0961758 0)
(0.0177841 0.0895578 0)
(0.0612768 0.0914978 0)
(0.112545 0.0866831 0)
(0.168374 0.0693109 0)
(0.225295 0.042156 0)
(0.280617 0.00566898 0)
(0.337367 -0.0365645 0)
(0.39693 -0.0812263 0)
(0.458691 -0.126049 0)
(0.520533 -0.166615 0)
(0.582195 -0.201769 0)
(0.641417 -0.228195 0)
(0.696866 -0.241744 0)
(0.747214 -0.24469 0)
(0.790071 -0.238061 0)
(0.825334 -0.221055 0)
(0.853972 -0.195797 0)
(0.875307 -0.164759 0)
(0.88819 -0.131108 0)
(0.893627 -0.0975928 0)
(0.893167 -0.0652362 0)
(0.887026 -0.037297 0)
(0.876229 -0.0148657 0)
(0.862508 0.00470544 0)
(0.846497 0.0215673 0)
(0.828716 0.0325386 0)
(0.81061 0.0371351 0)
(0.794855 0.039946 0)
(0.782836 0.0458497 0)
(0.772577 0.0543022 0)
(0.760749 0.060056 0)
(0.74521 0.0586816 0)
(0.725821 0.0498873 0)
(0.704352 0.0367571 0)
(0.683372 0.0233082 0)
(0.66503 0.0122131 0)
(0.650471 0.00455165 0)
(0.63972 -0.00010521 0)
(0.632319 -0.00235535 0)
(0.627546 -0.00336651 0)
(0.624725 -0.00320899 0)
(0.623207 -0.00312073 0)
(0.622354 -0.00217188 0)
(0.0826267 0.00108078 0)
(0.117559 -0.00587703 0)
(0.206949 -0.00565042 0)
(0.27972 -0.00665019 0)
(0.353081 -0.0127953 0)
(0.43115 -0.0293109 0)
(0.507429 -0.0531022 0)
(0.580293 -0.0843319 0)
(0.650186 -0.120536 0)
(0.716911 -0.159363 0)
(0.778415 -0.200469 0)
(0.83273 -0.235853 0)
(0.880715 -0.263143 0)
(0.919798 -0.282837 0)
(0.948793 -0.288642 0)
(0.967794 -0.282691 0)
(0.978364 -0.269397 0)
(0.982509 -0.244878 0)
(0.97985 -0.211115 0)
(0.973139 -0.174081 0)
(0.962297 -0.133636 0)
(0.946364 -0.0920221 0)
(0.927549 -0.055117 0)
(0.907333 -0.0246191 0)
(0.887206 0.00151509 0)
(0.866079 0.0249551 0)
(0.843851 0.0445172 0)
(0.822654 0.0563005 0)
(0.803759 0.0592229 0)
(0.787073 0.0580972 0)
(0.772697 0.0593344 0)
(0.760663 0.0648136 0)
(0.749871 0.070897 0)
(0.738428 0.0723728 0)
(0.725057 0.0669714 0)
(0.709825 0.0560917 0)
(0.693825 0.0428872 0)
(0.678544 0.0300721 0)
(0.665259 0.019362 0)
(0.654643 0.0111496 0)
(0.646792 0.0055772 0)
(0.641429 0.00188104 0)
(0.637868 -2.71222e-05 0)
(0.635885 -0.00116996 0)
(0.634334 -0.00132586 0)
)
;

boundaryField
{
    inlet
    {
        type            fixedValue;
        value           uniform (1 0 0);
    }
    outlet
    {
        type            zeroGradient;
    }
    upperWall
    {
        type            noSlip;
    }
    lowerWall
    {
        type            noSlip;
    }
    frontAndBack
    {
        type            empty;
    }
}


// ************************************************************************* //
