/*--------------------------------*- C++ -*----------------------------------*\
  =========                 |
  \\      /  F ield         | OpenFOAM: The Open Source CFD Toolbox
   \\    /   O peration     | Website:  https://openfoam.org
    \\  /    A nd           | Version:  10
     \\/     M anipulation  |
\*---------------------------------------------------------------------------*/
FoamFile
{
    format      ascii;
    class       volScalarField;
    location    "7.175";
    object      p;
}
// * * * * * * * * * * * * * * * * * * * * * * * * * * * * * * * * * * * * * //

dimensions      [0 2 -2 0 0 0 0];

internalField   nonuniform List<scalar> 
475
(
-0.0586458
-0.0840468
-0.113432
-0.13709
-0.159886
-0.0844003
-0.0977244
-0.11398
-0.133019
-0.149915
-0.0825072
-0.0918566
-0.106828
-0.124263
-0.140601
-0.0817844
-0.0926313
-0.107503
-0.122868
-0.136385
-0.0519708
-0.0788996
-0.102486
-0.120119
-0.132819
-0.178149
-0.188496
-0.192192
-0.194409
-0.197745
-0.202635
-0.208225
-0.212366
-0.213315
-0.21015
-0.202643
-0.191083
-0.176623
-0.160928
-0.145401
-0.130598
-0.117009
-0.106993
-0.102441
-0.10257
-0.104647
-0.106214
-0.10531
-0.101232
-0.0949435
-0.0871577
-0.0779543
-0.06814
-0.0584636
-0.0493229
-0.0409246
-0.0331494
-0.0258567
-0.0192472
-0.0137842
-0.00980426
-0.0071663
-0.00528932
-0.0036744
-0.00205813
-0.000580112
0.000576709
0.00118426
0.00116705
0.00058191
-0.166476
-0.17795
-0.183762
-0.185776
-0.186555
-0.187166
-0.187532
-0.186926
-0.184628
-0.18036
-0.17417
-0.166382
-0.157695
-0.148895
-0.140373
-0.13144
-0.123046
-0.117546
-0.116499
-0.119097
-0.122681
-0.124753
-0.123418
-0.11791
-0.109364
-0.0990222
-0.0876581
-0.0758417
-0.0641474
-0.0530616
-0.0427373
-0.0332568
-0.0246837
-0.017258
-0.0113987
-0.00731522
-0.00471233
-0.00292223
-0.00140658
9.15841e-05
0.00140452
0.00229769
0.00256822
0.00207998
0.0010311
-0.15392
-0.163383
-0.168911
-0.171086
-0.170946
-0.169307
-0.16657
-0.162914
-0.158477
-0.153554
-0.149237
-0.146626
-0.146022
-0.144985
-0.139504
-0.130719
-0.126441
-0.1264
-0.127371
-0.129237
-0.131473
-0.131457
-0.128014
-0.121499
-0.112128
-0.100997
-0.0888522
-0.0764414
-0.0643368
-0.0528584
-0.0421176
-0.0322036
-0.0233179
-0.015786
-0.00991012
-0.00573765
-0.00293548
-0.000952581
0.00064372
0.00204644
0.00312916
0.00371318
0.00363202
0.0027801
0.00132061
-0.147061
-0.154801
-0.159421
-0.161105
-0.160017
-0.156676
-0.151423
-0.144822
-0.137416
-0.130577
-0.126704
-0.128248
-0.138562
-0.149236
-0.143215
-0.123835
-0.113161
-0.11554
-0.124354
-0.131871
-0.135656
-0.135287
-0.131329
-0.12292
-0.112374
-0.100407
-0.087765
-0.0750535
-0.0627388
-0.0511257
-0.0403616
-0.0305797
-0.0219441
-0.0146917
-0.00900478
-0.00483274
-0.00188094
0.000256309
0.00190265
0.00320121
0.00407234
0.00441236
0.0040708
0.00303263
0.00136142
-0.142355
-0.149305
-0.153592
-0.154968
-0.153379
-0.149109
-0.142575
-0.13459
-0.125844
-0.1184
-0.113897
-0.117334
-0.131028
-0.145133
-0.146518
-0.138607
-0.129743
-0.125484
-0.125887
-0.128762
-0.130455
-0.129448
-0.125
-0.117936
-0.108407
-0.0972453
-0.0852411
-0.073041
-0.0611105
-0.0497445
-0.0391805
-0.0295968
-0.0211845
-0.0141395
-0.00856653
-0.00439327
-0.00136481
0.000840566
0.0024888
0.00369283
0.00441906
0.00457749
0.00407824
0.00295182
0.00123428
-0.203701
-0.204404
-0.205554
-0.206984
-0.209793
-0.215214
-0.222452
-0.229405
-0.233467
-0.232093
-0.223949
-0.208637
-0.186664
-0.159327
-0.128937
-0.0982843
-0.0700847
-0.0461504
-0.0275484
-0.0148794
-0.00778997
-0.00531814
-0.00618827
-0.00910093
-0.0129228
-0.016758
-0.0200359
-0.0225879
-0.0245697
-0.026113
-0.0271832
-0.0277167
-0.0274731
-0.0263899
-0.024533
-0.0219887
-0.0190467
-0.0161044
-0.0133742
-0.0109563
-0.00869854
-0.00645658
-0.00427014
-0.00223792
-0.000470851
-0.197656
-0.199792
-0.201553
-0.204731
-0.209839
-0.217303
-0.226063
-0.23409
-0.239
-0.238472
-0.231258
-0.216746
-0.194965
-0.167398
-0.136365
-0.104786
-0.075947
-0.0514816
-0.0324578
-0.0192829
-0.0117256
-0.00881814
-0.00925387
-0.0117546
-0.0152275
-0.0187348
-0.0216143
-0.0236779
-0.0251808
-0.0263757
-0.0274096
-0.0280235
-0.0279938
-0.0268541
-0.0244864
-0.0212248
-0.0177793
-0.0147304
-0.0124423
-0.0105819
-0.00878651
-0.00677382
-0.00459301
-0.00249946
-0.000610866
-0.2066
-0.205027
-0.204898
-0.206572
-0.211787
-0.220314
-0.230071
-0.238788
-0.244593
-0.244074
-0.23675
-0.222148
-0.20061
-0.173637
-0.143409
-0.112906
-0.0850374
-0.0615208
-0.0432762
-0.0307897
-0.023683
-0.0209006
-0.021082
-0.022911
-0.0253278
-0.0275425
-0.0291176
-0.0299628
-0.0301254
-0.0299219
-0.0294347
-0.0284605
-0.026834
-0.024646
-0.0220638
-0.019212
-0.0162975
-0.0136485
-0.0113788
-0.00945352
-0.00771512
-0.00591011
-0.00402995
-0.0022274
-0.000656648
-0.19383
-0.196036
-0.197469
-0.200834
-0.206966
-0.215827
-0.225591
-0.234251
-0.23969
-0.240162
-0.233883
-0.220413
-0.200305
-0.175594
-0.148407
-0.12125
-0.0967136
-0.0763548
-0.0610132
-0.0510789
-0.0458051
-0.043773
-0.0435627
-0.044043
-0.0443623
-0.043996
-0.0428242
-0.0409294
-0.0383285
-0.0352864
-0.0321198
-0.0290195
-0.0260069
-0.0231081
-0.0200872
-0.0168504
-0.013659
-0.0108222
-0.00861772
-0.00691319
-0.005478
-0.00405538
-0.00268829
-0.00141638
-0.000492423
-0.229838
-0.208404
-0.20482
-0.203653
-0.206771
-0.214071
-0.222599
-0.229442
-0.233024
-0.231743
-0.224773
-0.211781
-0.193633
-0.172326
-0.149879
-0.128016
-0.108633
-0.093504
-0.0835577
-0.0783636
-0.0763866
-0.0757823
-0.0751139
-0.0735854
-0.0707217
-0.0664621
-0.0613831
-0.0554564
-0.0490775
-0.0426609
-0.0366025
-0.0310285
-0.0258416
-0.0209713
-0.016675
-0.013124
-0.0103138
-0.0080909
-0.00624849
-0.00456786
-0.00303982
-0.00169291
-0.00071267
-9.81058e-05
-5.68892e-06
)
;

boundaryField
{
    inlet
    {
        type            zeroGradient;
    }
    outlet
    {
        type            fixedValue;
        value           uniform 0;
    }
    upperWall
    {
        type            zeroGradient;
    }
    lowerWall
    {
        type            zeroGradient;
    }
    frontAndBack
    {
        type            empty;
    }
}


// ************************************************************************* //
