/*--------------------------------*- C++ -*----------------------------------*\
  =========                 |
  \\      /  F ield         | OpenFOAM: The Open Source CFD Toolbox
   \\    /   O peration     | Website:  https://openfoam.org
    \\  /    A nd           | Version:  10
     \\/     M anipulation  |
\*---------------------------------------------------------------------------*/
FoamFile
{
    format      ascii;
    class       surfaceScalarField;
    location    "3.95";
    object      phi;
}
// * * * * * * * * * * * * * * * * * * * * * * * * * * * * * * * * * * * * * //

dimensions      [0 3 -1 0 0 0 0];

internalField   nonuniform List<scalar> 
22800
(
-2.51246e-06
2.79905e-06
-2.86655e-07
-7.94908e-06
5.31288e-06
1.23748e-07
-1.40299e-05
5.81696e-06
2.63815e-07
-2.01184e-05
5.75759e-06
3.30931e-07
-2.59729e-05
5.5243e-06
3.30197e-07
-3.14459e-05
5.18632e-06
2.86659e-07
-3.63988e-05
4.73989e-06
2.13055e-07
-4.06804e-05
4.16906e-06
1.12536e-07
-4.41221e-05
3.45711e-06
-1.54335e-08
-4.65527e-05
2.5887e-06
-1.58045e-07
-4.77784e-05
1.55915e-06
-3.33535e-07
-4.76172e-05
3.75264e-07
-5.36452e-07
-4.58961e-05
-9.71671e-07
-7.49369e-07
-4.25043e-05
-2.42116e-06
-9.7071e-07
-3.73997e-05
-3.91963e-06
-1.18496e-06
-3.06538e-05
-5.37722e-06
-1.36861e-06
-2.25093e-05
-6.66342e-06
-1.4811e-06
-1.34992e-05
-7.54824e-06
-1.46189e-06
-4.79198e-06
-7.43411e-06
-1.27309e-06
-4.30699e-06
-4.84995e-07
-5.01472e-06
8.77567e-06
-9.61905e-07
-1.40572e-05
1.49402e-05
-5.84798e-07
-2.39252e-05
1.6109e-05
-4.24059e-07
-3.3701e-05
1.58322e-05
-2.98775e-07
-4.30056e-05
1.50624e-05
-2.33468e-07
-5.15924e-05
1.3979e-05
-2.05959e-07
-5.92378e-05
1.25888e-05
-2.03447e-07
-6.57133e-05
1.08685e-05
-2.24018e-07
-7.07791e-05
8.79232e-06
-2.69368e-07
-7.41853e-05
6.3375e-06
-3.42556e-07
-7.56711e-05
3.49097e-06
-4.46088e-07
-7.50269e-05
3.10072e-07
-5.7893e-07
-7.20105e-05
-3.25556e-06
-7.32554e-07
-6.64862e-05
-7.04451e-06
-9.00951e-07
-5.84232e-05
-1.0913e-05
-1.06961e-06
-4.79473e-05
-1.46413e-05
-1.21181e-06
-3.54218e-05
-1.79104e-05
-1.27848e-06
-2.16145e-05
-2.0154e-05
-1.20158e-06
-8.16521e-06
-1.99306e-05
-9.52806e-07
-1.24038e-05
-6.83731e-08
-5.74157e-06
1.57797e-05
-1.26249e-06
-1.59218e-05
2.60293e-05
-9.0894e-07
-2.69678e-05
2.78931e-05
-7.38122e-07
-3.78791e-05
2.73307e-05
-5.87219e-07
-4.82508e-05
2.59278e-05
-4.93612e-07
-5.78199e-05
2.39827e-05
-4.34534e-07
-6.63478e-05
2.15148e-05
-3.98124e-07
-7.35901e-05
1.84953e-05
-3.84438e-07
-7.92899e-05
1.4889e-05
-3.96848e-07
-8.31793e-05
1.06664e-05
-4.39557e-07
-8.49896e-05
5.81595e-06
-5.14653e-07
-8.44237e-05
3.70116e-07
-6.25987e-07
-8.12301e-05
-5.68428e-06
-7.64867e-07
-7.5228e-05
-1.21186e-05
-9.27975e-07
-6.63391e-05
-1.87035e-05
-1.09837e-06
-5.46573e-05
-2.50774e-05
-1.24569e-06
-4.05514e-05
-3.07032e-05
-1.31328e-06
-2.48647e-05
-3.46181e-05
-1.22253e-06
-9.46036e-06
-3.43906e-05
-9.44276e-07
-2.18884e-05
2.42347e-08
-6.03187e-06
2.33227e-05
-1.51105e-06
-1.67929e-05
3.79738e-05
-1.18343e-06
-2.8465e-05
4.05729e-05
-1.00768e-06
-4.00083e-05
3.97133e-05
-8.39265e-07
-5.10142e-05
3.76593e-05
-7.25726e-07
-6.12219e-05
3.48354e-05
-6.44949e-07
-7.03946e-05
3.12735e-05
-5.85994e-07
-7.82859e-05
2.69367e-05
-5.50229e-07
-8.46305e-05
2.17759e-05
-5.42285e-07
-8.91412e-05
1.57445e-05
-5.6745e-07
-9.15103e-05
8.8157e-06
-6.30688e-07
-9.14276e-05
1.02559e-06
-7.38169e-07
-8.85325e-05
-7.69608e-06
-8.83323e-07
-8.25514e-05
-1.70405e-05
-1.05926e-06
-7.33073e-05
-2.66982e-05
-1.24935e-06
-6.08121e-05
-3.6152e-05
-1.42061e-06
-4.54009e-05
-4.46075e-05
-1.50683e-06
-2.79859e-05
-5.06204e-05
-1.41272e-06
-1.06863e-05
-5.05872e-05
-1.103e-06
-3.25635e-05
-1.11697e-08
-6.30623e-06
3.13713e-05
-1.74238e-06
-1.76692e-05
5.077e-05
-1.43329e-06
-3.00136e-05
5.41707e-05
-1.25335e-06
-4.22537e-05
5.3025e-05
-1.07163e-06
-5.39788e-05
5.03294e-05
-9.45009e-07
-6.49366e-05
4.66448e-05
-8.5158e-07
-7.48985e-05
4.20165e-05
-7.8108e-07
-8.36221e-05
3.63964e-05
-7.36124e-07
-9.08375e-05
2.97142e-05
-7.22785e-07
-9.62388e-05
2.18938e-05
-7.48013e-07
-9.94783e-05
1.28734e-05
-8.18202e-07
-0.000100163
2.64865e-06
-9.38216e-07
-9.78629e-05
-8.87957e-06
-1.11677e-06
-9.21414e-05
-2.14268e-05
-1.33519e-06
-8.26559e-05
-3.46052e-05
-1.5785e-06
-6.92534e-05
-4.7747e-05
-1.8075e-06
-5.21757e-05
-5.97446e-05
-1.94063e-06
-3.2413e-05
-6.85256e-05
-1.85751e-06
-1.24582e-05
-6.90352e-05
-1.50676e-06
-4.48371e-05
-1.84559e-07
-6.65484e-06
4.00251e-05
-1.99896e-06
-1.87704e-05
6.45906e-05
-1.70499e-06
-3.19574e-05
6.88784e-05
-1.5207e-06
-4.5069e-05
6.7463e-05
-1.32634e-06
-5.76932e-05
6.41423e-05
-1.1887e-06
-6.95915e-05
5.96292e-05
-1.08608e-06
-8.0551e-05
5.3985e-05
-1.00908e-06
-9.03413e-05
4.71486e-05
-9.61737e-07
-9.86956e-05
3.90203e-05
-9.5187e-07
-0.000105293
2.948e-05
-9.88595e-07
-0.000109745
1.8406e-05
-1.08078e-06
-0.000111581
5.71968e-06
-1.23552e-06
-0.000110245
-8.74147e-06
-1.4741e-06
-0.000105087
-2.48155e-05
-1.76862e-06
-9.55153e-05
-4.20693e-05
-2.10778e-06
-8.10999e-05
-5.97181e-05
-2.44427e-06
-6.1875e-05
-7.62972e-05
-2.67232e-06
-3.88723e-05
-8.88982e-05
-2.63012e-06
-1.51181e-05
-9.05593e-05
-2.2301e-06
-5.93951e-05
-5.6015e-07
-7.09099e-06
4.94293e-05
-2.31327e-06
-2.01341e-05
7.96711e-05
-2.03744e-06
-3.43505e-05
8.49427e-05
-1.8479e-06
-4.85167e-05
8.3267e-05
-1.63782e-06
-6.22212e-05
7.9333e-05
-1.48621e-06
-7.52471e-05
7.40272e-05
-1.37215e-06
-8.74082e-05
6.74339e-05
-1.28782e-06
-9.84999e-05
5.94796e-05
-1.23933e-06
-0.000108273
5.00308e-05
-1.23695e-06
-0.000116408
3.89079e-05
-1.29312e-06
-0.000122483
2.59013e-05
-1.4202e-06
-0.000125948
1.08123e-05
-1.6278e-06
-0.000126113
-6.61304e-06
-1.96361e-06
-0.000122038
-2.65088e-05
-2.38179e-06
-0.000112766
-4.84588e-05
-2.88265e-06
-9.74141e-05
-7.16597e-05
-3.41006e-06
-7.56007e-05
-9.42878e-05
-3.82275e-06
-4.82553e-05
-0.000112355
-3.8886e-06
-1.91338e-05
-0.000116236
-3.4448e-06
-7.72673e-05
-1.26163e-06
-7.61765e-06
5.97586e-05
-2.71163e-06
-2.17721e-05
9.62879e-05
-2.46226e-06
-3.72034e-05
0.000102639
-2.26509e-06
-5.25945e-05
0.00010069
-2.03201e-06
-6.7539e-05
9.61357e-05
-1.85826e-06
-8.18527e-05
9.00659e-05
-1.72497e-06
-9.53915e-05
8.25998e-05
-1.62708e-06
-0.000107996
7.36585e-05
-1.57386e-06
-0.000119462
6.30752e-05
-1.57923e-06
-0.000129496
5.06029e-05
-1.66066e-06
-0.000137675
3.59181e-05
-1.83819e-06
-0.000143373
1.86486e-05
-2.13819e-06
-0.000145799
-1.58479e-06
-2.60158e-06
-0.000143646
-2.54527e-05
-3.20955e-06
-0.000135454
-5.26749e-05
-3.97634e-06
-0.000119624
-8.26516e-05
-4.83762e-06
-9.49915e-05
-0.000113316
-5.60452e-06
-6.20128e-05
-0.000139405
-5.9289e-06
-2.53643e-05
-0.000147399
-5.48543e-06
-0.000100056
-2.57513e-06
-8.24652e-06
7.12299e-05
-3.22478e-06
-2.37108e-05
0.000114768
-3.01584e-06
-4.05399e-05
0.000122274
-2.80582e-06
-5.73062e-05
0.000119993
-2.53621e-06
-7.36156e-05
0.00011477
-2.32479e-06
-8.9332e-05
0.000107939
-2.15682e-06
-0.000104373
9.96731e-05
-2.03193e-06
-0.000118653
8.99016e-05
-1.96397e-06
-0.000132041
7.84357e-05
-1.97199e-06
-0.000144322
6.49649e-05
-2.08057e-06
-0.000155125
4.90417e-05
-2.32083e-06
-0.000163821
3.00791e-05
-2.7352e-06
-0.000169478
7.43528e-06
-3.36294e-06
-0.000170549
-2.00984e-05
-4.2833e-06
-0.000164836
-5.2907e-05
-5.48053e-06
-0.000149692
-9.08782e-05
-6.91756e-06
-0.000122559
-0.000132092
-8.35593e-06
-8.26484e-05
-0.000170041
-9.27477e-06
-3.551e-05
-0.000185559
-8.97862e-06
-0.000130391
-5.17542e-06
-9.01058e-06
8.41369e-05
-3.89634e-06
-2.60147e-05
0.00013552
-3.74802e-06
-4.4426e-05
0.0001442
-3.5144e-06
-6.26907e-05
0.000141442
-3.18431e-06
-8.04404e-05
0.000135427
-2.90775e-06
-9.76073e-05
0.000127784
-2.67781e-06
-0.000114195
0.000118762
-2.50148e-06
-0.000130218
0.000108324
-2.39891e-06
-0.00014567
9.6283e-05
-2.3957e-06
-0.000160471
8.22913e-05
-2.52554e-06
-0.000174392
6.57967e-05
-2.83419e-06
-0.000186923
4.59927e-05
-3.38243e-06
-0.000197044
2.17952e-05
-4.23866e-06
-0.000203168
-8.36766e-06
-5.60685e-06
-0.000202257
-4.63377e-05
-7.48057e-06
-0.000190207
-9.30394e-05
-9.88831e-06
-0.000162144
-0.000147582
-1.25739e-05
-0.000114615
-0.000202769
-1.48001e-05
-5.31083e-05
-0.000231946
-1.51205e-05
-0.000172817
-1.06824e-05
-9.98532e-06
9.89162e-05
-4.79406e-06
-2.88211e-05
0.000159089
-4.73312e-06
-4.90071e-05
0.00016884
-4.45431e-06
-6.88565e-05
0.000165313
-4.02146e-06
-8.80531e-05
0.000158257
-3.63248e-06
-0.000106624
0.000149649
-3.29422e-06
-0.000124684
0.000139847
-3.02489e-06
-0.00014238
0.000128873
-2.85277e-06
-0.000159869
0.000116583
-2.81102e-06
-0.000177282
0.000102649
-2.94418e-06
-0.000194646
8.64782e-05
-3.31731e-06
-0.000211739
6.71078e-05
-4.02286e-06
-0.000227808
4.30601e-05
-5.19571e-06
-0.000241352
1.23101e-05
-7.13331e-06
-0.000248807
-2.88721e-05
-1.00106e-05
-0.000244321
-8.35621e-05
-1.39637e-05
-0.00021952
-0.000153514
-1.88683e-05
-0.00016595
-0.000232525
-2.38145e-05
-8.61097e-05
-0.000285554
-2.62317e-05
-0.000236191
-2.27355e-05
-1.13306e-05
0.000116277
-6.03013e-06
-3.23994e-05
0.000186245
-6.08695e-06
-5.45648e-05
0.000196726
-5.72054e-06
-7.60315e-05
0.000191889
-5.10989e-06
-9.65871e-05
0.00018334
-4.52744e-06
-0.000116391
0.000173456
-4.00361e-06
-0.000135693
0.000162722
-3.5733e-06
-0.000154792
0.000151246
-3.27422e-06
-0.000174044
0.000138982
-3.14672e-06
-0.000193857
0.000125708
-3.24601e-06
-0.000214662
0.000110942
-3.65922e-06
-0.000236781
9.37535e-05
-4.52704e-06
-0.000260129
7.24771e-05
-6.06886e-06
-0.000283497
4.42572e-05
-8.57919e-06
-0.000304365
4.77247e-06
-1.27763e-05
-0.000315045
-5.3946e-05
-1.89357e-05
-0.000302867
-0.000138228
-2.74641e-05
-0.000250805
-0.000247065
-3.75228e-05
-0.00015066
-0.000339956
-4.5743e-05
-0.000336643
-5.02079e-05
-1.3385e-05
0.000137465
-7.80343e-06
-3.726e-05
0.00021812
-8.00052e-06
-6.16086e-05
0.000228533
-7.45784e-06
-8.46342e-05
0.000221447
-6.53258e-06
-0.000106327
0.000210652
-5.61885e-06
-0.000127035
0.000198948
-4.78317e-06
-0.00014716
0.000186929
-4.08307e-06
-0.000167145
0.000174798
-3.56591e-06
-0.000187537
0.000162649
-3.27515e-06
-0.000209037
0.000150478
-3.26954e-06
-0.000232561
0.000138113
-3.64724e-06
-0.000259226
0.000124999
-4.57935e-06
-0.000290216
0.000109821
-6.35358e-06
-0.000326207
8.96869e-05
-9.43926e-06
-0.000365615
5.89228e-05
-1.47421e-05
-0.000403654
7.67083e-06
-2.35775e-05
-0.000422255
-8.3196e-05
-3.64321e-05
-0.000390349
-0.000225418
-5.35523e-05
-0.000273253
-0.000383982
-7.30702e-05
-0.000507719
-0.000102177
-1.68918e-05
0.000164851
-1.04939e-05
-4.44084e-05
0.000256501
-1.08645e-05
-7.10357e-05
0.000265177
-1.00171e-05
-9.53594e-05
0.000254297
-8.52585e-06
-0.000117777
0.000240065
-6.99603e-06
-0.00013888
0.000225644
-5.59308e-06
-0.000159205
0.000211678
-4.42345e-06
-0.000179299
0.000198432
-3.54044e-06
-0.000199843
0.000186166
-2.97368e-06
-0.000221769
0.000175169
-2.76547e-06
-0.00024647
0.000165819
-3.00378e-06
-0.00027603
0.000158427
-3.86959e-06
-0.000313437
0.000152907
-5.67926e-06
-0.000362376
0.000147545
-8.91902e-06
-0.000426295
0.000136905
-1.40636e-05
-0.000503417
0.000106502
-2.17096e-05
-0.000580804
2.84241e-05
-3.42324e-05
-0.000602299
-0.000152796
-5.11273e-05
-0.00048038
-0.000433401
-7.24998e-05
-0.0008405
-0.000147599
-2.26106e-05
0.000202211
-1.47492e-05
-5.49304e-05
0.000303487
-1.46656e-05
-8.39956e-05
0.000307305
-1.30626e-05
-0.000109499
0.00029027
-1.04706e-05
-0.000132079
0.000270704
-8.05819e-06
-0.000152717
0.000252201
-5.91934e-06
-0.000172246
0.000235347
-4.13932e-06
-0.000191302
0.000220243
-2.75512e-06
-0.000210519
0.000207162
-1.77927e-06
-0.00023075
0.000196623
-1.2228e-06
-0.000253503
0.000189654
-1.08265e-06
-0.000281491
0.000187793
-1.37639e-06
-0.000319768
0.000193279
-2.09534e-06
-0.000376487
0.000207291
-3.02781e-06
-0.000464074
0.00022759
-3.09769e-06
-0.000593183
0.000234785
8.26736e-07
-0.000760999
0.000183471
1.27692e-05
-0.000870162
-8.19824e-05
3.83494e-05
-0.00074609
-0.000622966
6.54933e-05
-0.00149147
-9.51159e-05
-4.20878e-05
0.000266601
-2.23023e-05
-7.72158e-05
0.000362351
-2.37363e-05
-0.000105088
0.000355597
-2.04199e-05
-0.000127615
0.000328694
-1.58966e-05
-0.000147911
0.000302149
-1.115e-05
-0.000166942
0.0002782
-6.96756e-06
-0.000185133
0.000257097
-3.55917e-06
-0.000202555
0.000238641
-9.75469e-07
-0.000219386
0.000223188
8.04036e-07
-0.000235993
0.000211338
1.89216e-06
-0.000253683
0.000204888
2.45563e-06
-0.000274937
0.000206245
2.80152e-06
-0.000305893
0.000220434
3.80199e-06
-0.000357773
0.000251396
7.77519e-06
-0.000455322
0.000303644
2.14944e-05
-0.000623548
0.000342946
6.00662e-05
-0.000890529
0.00030795
0.000142501
-0.00109908
-0.000140818
0.000267388
-0.000957838
-0.00110035
0.000336142
-0.00241939
-2.99188e-05
-3.66387e-05
0.000339972
-3.67327e-05
-9.03145e-05
0.000446651
-3.06238e-05
-0.000127282
0.000417263
-2.46987e-05
-0.00015501
0.000371736
-1.5314e-05
-0.000174509
0.000329633
-7.98411e-06
-0.000189136
0.000294917
-2.0906e-06
-0.000201063
0.00026651
2.51371e-06
-0.00021123
0.000242943
5.86534e-06
-0.000220036
0.000223901
8.09356e-06
-0.000227016
0.000208899
9.41886e-06
-0.000232239
0.000199868
1.02433e-05
-0.00023602
0.000198621
1.1405e-05
-0.00024325
0.000212382
1.52811e-05
-0.00026397
0.000244017
2.8099e-05
-0.000338515
0.000312643
6.55462e-05
-0.000507293
0.000356676
0.000155047
-0.000847414
0.000316478
0.000331594
-0.00114727
-0.000356441
0.000515478
-0.0009956
-0.00173233
0.000480312
-0.00324688
-0.000168115
-0.000176409
0.00056723
-5.08487e-05
-0.000188254
0.000514043
-5.55462e-05
-0.000182883
0.000457154
-4.52622e-05
-0.00017889
0.000397722
-2.99783e-05
-0.000170076
0.000334919
-1.40999e-05
-0.000160679
0.000287065
-1.54569e-06
-0.000152438
0.00025055
7.71902e-06
-0.00014463
0.000221181
1.39543e-05
-0.000136999
0.000198457
1.78124e-05
-0.000127412
0.000179764
1.95486e-05
-0.0001154
0.000167805
2.00514e-05
-9.79335e-05
0.000161019
2.01346e-05
-7.65922e-05
0.00016737
2.36712e-05
-5.50588e-05
0.000184581
3.79034e-05
-5.31864e-05
0.000227633
8.3137e-05
-0.000128278
0.000246988
0.000184779
-0.000338423
0.000148587
0.000378035
-0.000670882
-0.000574704
0.000550722
-0.00071409
-0.00206224
0.000373118
-0.00351355
-0.000447419
-0.000373423
0.00108591
-0.000145258
-0.000271751
0.000500818
-8.84478e-05
-0.000133616
0.000372961
-5.39431e-05
1.06689e-05
0.000273481
-2.00436e-05
0.000140846
0.000202322
2.41984e-06
0.000252903
0.000155926
1.90812e-05
0.00034554
0.000126953
3.09612e-05
0.000421944
0.000106471
3.83055e-05
0.000484902
9.30163e-05
4.24827e-05
0.000538913
8.24993e-05
4.32535e-05
0.000589136
7.62841e-05
4.12987e-05
0.000640242
7.28629e-05
3.70498e-05
0.000702168
7.21744e-05
3.32697e-05
0.000783099
7.52e-05
2.84501e-05
0.000889368
7.04585e-05
5.09057e-05
0.000997313
4.7283e-05
9.17599e-05
0.00103466
-7.15892e-05
0.000182826
0.00067979
-0.000572696
0.000352865
0.000112158
-0.00162098
0.000126366
-0.00273231
-0.00066908
0.00122973
-0.00014382
0.00187764
-0.000147089
0.0023888
-0.000138202
0.00277982
-0.000117534
0.00307597
-9.38316e-05
0.00330495
-7.30536e-05
0.00348387
-5.19705e-05
0.00362562
-3.52742e-05
0.00373693
-1.82981e-05
0.00382551
-6.07613e-06
0.00389803
3.76753e-06
0.00395873
1.21589e-05
0.00401863
1.22756e-05
0.00407364
2.01883e-05
0.00412907
1.50233e-05
0.00414795
2.84094e-05
0.00404229
3.40718e-05
0.00346401
5.58293e-06
0.00190627
-6.32376e-05
-0.000826042
-4.53754e-06
4.73387e-06
-4.82989e-07
-1.36631e-05
9.44361e-06
-1.94257e-07
-2.37256e-05
1.03793e-05
-5.30374e-08
-3.3601e-05
1.01734e-05
3.29332e-08
-4.29309e-05
9.608e-06
5.2088e-08
-5.15053e-05
8.83322e-06
2.78058e-08
-5.91163e-05
7.85711e-06
-3.30493e-08
-6.55395e-05
6.6652e-06
-1.29458e-07
-7.05414e-05
5.24286e-06
-2.56356e-07
-7.38667e-05
3.5816e-06
-4.14355e-07
-7.5274e-05
1.6762e-06
-6.02436e-07
-7.45305e-05
-4.62218e-07
-8.17759e-07
-7.1432e-05
-2.79753e-06
-1.05025e-06
-6.58477e-05
-5.26405e-06
-1.29101e-06
-5.77484e-05
-7.76188e-06
-1.52243e-06
-4.72496e-05
-1.01506e-05
-1.71677e-06
-3.46797e-05
-1.22188e-05
-1.8322e-06
-2.07723e-05
-1.35546e-05
-1.81468e-06
-7.41318e-06
-1.30017e-05
-1.63055e-06
-7.00599e-06
-8.92183e-07
-9.51943e-06
1.44182e-05
-1.12678e-06
-2.55388e-05
2.58059e-05
-9.27768e-07
-4.27827e-05
2.79564e-05
-7.57227e-07
-5.95649e-05
2.72619e-05
-6.05103e-07
-7.52734e-05
2.55988e-05
-5.15821e-07
-8.95166e-05
2.33433e-05
-4.72739e-07
-0.000101936
2.0538e-05
-4.65275e-07
-0.000112174
1.7172e-05
-4.9224e-07
-0.000119876
1.32305e-05
-5.55291e-07
-0.000124687
8.70683e-06
-6.5666e-07
-0.000126262
3.60322e-06
-7.97881e-07
-0.000124322
-2.00295e-06
-9.78139e-07
-0.000118593
-8.07461e-06
-1.18506e-06
-0.000108938
-1.44109e-05
-1.4088e-06
-9.53714e-05
-2.07705e-05
-1.62764e-06
-7.81181e-05
-2.68077e-05
-1.80801e-06
-5.77094e-05
-3.20084e-05
-1.89758e-06
-3.52635e-05
-3.53688e-05
-1.83334e-06
-1.3494e-05
-3.41413e-05
-1.58276e-06
-1.98861e-05
-6.82205e-07
-1.11091e-05
2.57211e-05
-1.45625e-06
-2.94507e-05
4.45508e-05
-1.31231e-06
-4.90729e-05
4.79714e-05
-1.13087e-06
-6.8109e-05
4.66591e-05
-9.48256e-07
-8.58927e-05
4.37141e-05
-8.25229e-07
-0.000101995
3.97576e-05
-7.46246e-07
-0.000116025
3.48719e-05
-7.01945e-07
-0.000127597
2.90521e-05
-6.92783e-07
-0.000136326
2.22847e-05
-7.22367e-07
-0.00014183
1.45663e-05
-7.94693e-07
-0.000143752
5.9222e-06
-9.1221e-07
-0.000141706
-3.59879e-06
-1.07596e-06
-0.000135408
-1.38608e-05
-1.27692e-06
-0.000124665
-2.45766e-05
-1.50437e-06
-0.000109441
-3.53585e-05
-1.73505e-06
-8.99285e-05
-4.56349e-05
-1.93078e-06
-6.66783e-05
-5.45412e-05
-2.0307e-06
-4.09284e-05
-6.03806e-05
-1.96066e-06
-1.5775e-05
-5.85531e-05
-1.6858e-06
-3.49433e-05
-6.9354e-07
-1.18236e-05
3.77915e-05
-1.75781e-06
-3.13829e-05
6.45976e-05
-1.67099e-06
-5.22844e-05
6.9349e-05
-1.48369e-06
-7.25697e-05
6.73833e-05
-1.27821e-06
-9.15594e-05
6.31073e-05
-1.12919e-06
-0.000108823
5.73987e-05
-1.02249e-06
-0.000123966
5.03796e-05
-9.5018e-07
-0.000136598
4.20482e-05
-9.14608e-07
-0.00014632
3.23853e-05
-9.2138e-07
-0.000152722
2.13783e-05
-9.76662e-07
-0.000155394
9.04942e-06
-1.08584e-06
-0.000153919
-4.55815e-06
-1.25409e-06
-0.000147867
-1.93261e-05
-1.47046e-06
-0.000136925
-3.48513e-05
-1.72601e-06
-0.000120924
-5.06134e-05
-1.99526e-06
-9.99476e-05
-6.5797e-05
-2.23533e-06
-7.44983e-05
-7.91238e-05
-2.37354e-06
-4.59192e-05
-8.8055e-05
-2.31745e-06
-1.77331e-05
-8.58201e-05
-2.02207e-06
-5.17989e-05
-8.88709e-07
-1.25224e-05
5.06338e-05
-2.06236e-06
-3.33368e-05
8.60108e-05
-2.03201e-06
-5.55923e-05
9.21901e-05
-1.83891e-06
-7.72285e-05
8.95607e-05
-1.61277e-06
-9.75569e-05
8.3933e-05
-1.4424e-06
-0.000116154
7.64593e-05
-1.31488e-06
-0.000132635
6.73027e-05
-1.22377e-06
-0.000146609
5.64601e-05
-1.17348e-06
-0.00015767
4.3895e-05
-1.17197e-06
-0.000165377
2.95662e-05
-1.22819e-06
-0.000169256
1.34605e-05
-1.35051e-06
-0.000168797
-4.40912e-06
-1.54609e-06
-0.000163422
-2.40069e-05
-1.81088e-06
-0.000152619
-4.48561e-05
-2.13383e-06
-0.000135983
-6.63398e-05
-2.488e-06
-0.000113373
-8.73929e-05
-2.8217e-06
-8.51654e-05
-0.000106229
-3.04341e-06
-5.28211e-05
-0.000119226
-3.03097e-06
-2.04913e-05
-0.000116943
-2.71373e-06
-7.11354e-05
-1.33927e-06
-1.34082e-05
6.44543e-05
-2.41126e-06
-3.57923e-05
0.000109132
-2.44245e-06
-5.97428e-05
0.000116862
-2.2423e-06
-8.30686e-05
0.000113554
-1.99347e-06
-0.000105071
0.000106548
-1.80089e-06
-0.000125343
9.72982e-05
-1.65322e-06
-0.000143517
8.60133e-05
-1.54594e-06
-0.000159218
7.26853e-05
-1.48609e-06
-0.000172038
5.72483e-05
-1.48466e-06
-0.000181515
3.96083e-05
-1.55423e-06
-0.000187105
1.96781e-05
-1.70767e-06
-0.000188202
-2.59029e-06
-1.95739e-06
-0.000184005
-2.73711e-05
-2.30734e-06
-0.000173726
-5.41578e-05
-2.74595e-06
-0.000156603
-8.23239e-05
-3.24685e-06
-0.000132107
-0.000110586
-3.7474e-06
-0.000100329
-0.000136552
-4.12722e-06
-6.28036e-05
-0.000155166
-4.215e-06
-2.45786e-05
-0.000153511
-3.88688e-06
-9.41346e-05
-2.13961e-06
-1.45252e-05
7.9508e-05
-2.84176e-06
-3.88591e-05
0.000134377
-2.94791e-06
-6.48978e-05
0.000143791
-2.73776e-06
-9.0287e-05
0.000139764
-2.45907e-06
-0.000114321
0.000131333
-2.23678e-06
-0.000136618
0.000120286
-2.06215e-06
-0.000156848
0.000106889
-1.93372e-06
-0.00017467
9.11302e-05
-1.86215e-06
-0.0001897
7.29039e-05
-1.86268e-06
-0.000201469
5.20371e-05
-1.95314e-06
-0.000209376
2.83182e-05
-2.15327e-06
-0.000212732
1.6243e-06
-2.48557e-06
-0.000210451
-2.86527e-05
-2.96321e-06
-0.000201388
-6.20203e-05
-3.58253e-06
-0.000184244
-9.80285e-05
-4.32162e-06
-0.000157847
-0.000135287
-5.10652e-06
-0.000121697
-0.000170748
-5.77625e-06
-7.72155e-05
-0.000197458
-6.07795e-06
-3.06859e-05
-0.000197705
-5.78044e-06
-0.000122598
-3.48445e-06
-1.58957e-05
9.6082e-05
-3.38993e-06
-4.25935e-05
0.000162205
-3.59275e-06
-7.11299e-05
0.000173429
-3.36659e-06
-9.89527e-05
0.000168599
-3.04415e-06
-0.000125355
0.000158653
-2.77655e-06
-0.00015
0.000145765
-2.55949e-06
-0.000172617
0.000130275
-2.39631e-06
-0.000192933
0.000112176
-2.3029e-06
-0.000210626
9.13181e-05
-2.30026e-06
-0.000225267
6.74301e-05
-2.41342e-06
-0.000236251
4.01329e-05
-2.66838e-06
-0.00024271
9.02808e-06
-3.08361e-06
-0.000243469
-2.67241e-05
-3.77074e-06
-0.000236807
-6.72283e-05
-4.66383e-06
-0.000220691
-0.000112343
-5.7775e-06
-0.000192917
-0.000160863
-7.03638e-06
-0.000151849
-0.000209191
-8.22945e-06
-9.82902e-05
-0.000247971
-8.97472e-06
-4.01101e-05
-0.00025255
-8.82035e-06
-0.000159525
-5.75806e-06
-1.75573e-05
0.000114515
-4.10058e-06
-4.70773e-05
0.00019314
-4.43104e-06
-7.85363e-05
0.000206259
-4.17755e-06
-0.000109148
0.000200462
-3.78743e-06
-0.000138215
0.000188842
-3.44714e-06
-0.000165471
0.000174024
-3.15991e-06
-0.000190742
0.000156451
-2.93657e-06
-0.000213867
0.000136137
-2.80024e-06
-0.000234639
0.000112899
-2.77986e-06
-0.000252736
8.63579e-05
-2.9112e-06
-0.000267618
5.59317e-05
-3.23811e-06
-0.000278372
2.0867e-05
-3.82035e-06
-0.000283698
-2.00446e-05
-4.71633e-06
-0.000281324
-6.78946e-05
-5.99097e-06
-0.00026824
-0.000123235
-7.67261e-06
-0.000240671
-0.000185646
-9.70342e-06
-0.00019492
-0.000251471
-1.18261e-05
-0.000130052
-0.000308638
-1.3477e-05
-5.55471e-05
-0.000322286
-1.37469e-05
-0.000210518
-9.7298e-06
-1.9582e-05
0.000135238
-5.03727e-06
-5.24548e-05
0.000227802
-5.53712e-06
-8.72844e-05
0.00024281
-5.23541e-06
-0.000121014
0.000235744
-4.73743e-06
-0.000152978
0.000222177
-4.27874e-06
-0.000183017
0.000205261
-3.87512e-06
-0.000211099
0.000185579
-3.54862e-06
-0.000237228
0.0001632
-3.33195e-06
-0.000261391
0.000137929
-3.26364e-06
-0.000283468
0.000109301
-3.39183e-06
-0.000303113
7.65219e-05
-3.77945e-06
-0.000319546
3.84303e-05
-4.51222e-06
-0.000331486
-6.64968e-06
-5.6944e-06
-0.000336239
-6.12536e-05
-7.49459e-06
-0.000329697
-0.000127252
-1.00053e-05
-0.0003059
-0.00020608
-1.32511e-05
-0.000257669
-0.000295293
-1.69832e-05
-0.000180223
-0.00038045
-2.04333e-05
-8.30897e-05
-0.00041269
-2.18499e-05
-0.000287269
-1.70205e-05
-2.21057e-05
0.000158846
-6.29643e-06
-5.8981e-05
0.000266964
-7.01962e-06
-9.76623e-05
0.000283668
-6.63152e-06
-0.000134797
0.000274816
-5.95858e-06
-0.000169795
0.000258849
-5.30656e-06
-0.000202652
0.000239537
-4.71177e-06
-0.000233531
0.000217646
-4.21286e-06
-0.000262669
0.000193339
-3.85454e-06
-0.000290327
0.000166462
-3.68548e-06
-0.000316716
0.000136513
-3.76653e-06
-0.000341876
0.000102546
-4.18153e-06
-0.000365439
6.30183e-05
-5.04793e-06
-0.000386492
1.57149e-05
-6.50773e-06
-0.000402387
-4.3502e-05
-8.9895e-06
-0.000408136
-0.0001189
-1.26139e-05
-0.000395249
-0.000215279
-1.76515e-05
-0.000351337
-0.000334027
-2.40468e-05
-0.000264322
-0.000460368
-3.09113e-05
-0.000137841
-0.000530095
-3.53088e-05
-0.000416725
-3.11208e-05
-2.53801e-05
0.000186226
-8.02957e-06
-6.70988e-05
0.000311639
-9.04305e-06
-0.000110154
0.000329503
-8.49954e-06
-0.000150912
0.000318003
-7.53911e-06
-0.000188938
0.00029892
-6.57147e-06
-0.000224457
0.000276719
-5.66646e-06
-0.000257885
0.000252387
-4.88697e-06
-0.000289751
0.000226223
-4.29166e-06
-0.000320677
0.000198178
-3.93771e-06
-0.000351344
0.000167829
-3.8954e-06
-0.000382429
0.000134241
-4.26893e-06
-0.000414415
9.56987e-05
-5.22139e-06
-0.000447047
4.93017e-05
-7.02397e-06
-0.000479118
-9.99578e-06
-1.0014e-05
-0.000505918
-8.99727e-05
-1.49041e-05
-0.00051712
-0.000200732
-2.22802e-05
-0.000494046
-0.000351891
-3.26742e-05
-0.000411743
-0.000534721
-4.54726e-05
-0.00025234
-0.000678264
-5.69776e-05
-0.000659801
-5.9471e-05
-2.98823e-05
0.000218789
-1.04845e-05
-7.75641e-05
0.000363183
-1.18633e-05
-0.000125544
0.00038106
-1.10354e-05
-0.000170023
0.000365545
-9.59629e-06
-0.000210868
0.000342261
-8.11559e-06
-0.000248634
0.000316416
-6.71432e-06
-0.000284055
0.000289214
-5.48905e-06
-0.000317989
0.000261105
-4.51352e-06
-0.000351457
0.000232218
-3.84766e-06
-0.000385692
0.000202354
-3.55894e-06
-0.000422212
0.000170862
-3.7478e-06
-0.000462796
0.000136291
-4.58821e-06
-0.000509261
9.57979e-05
-6.38478e-06
-0.000563021
4.39575e-05
-9.63225e-06
-0.00062253
-2.97124e-05
-1.54939e-05
-0.000679108
-0.000142752
-2.49798e-05
-0.000709228
-0.000318556
-3.96477e-05
-0.000663233
-0.000574263
-6.00048e-05
-0.000471263
-0.000859498
-8.38062e-05
-0.00112665
-0.000106592
-3.66761e-05
0.000259071
-1.40998e-05
-9.18757e-05
0.00042347
-1.59513e-05
-0.000145141
0.000438948
-1.46393e-05
-0.000193085
0.000417359
-1.23959e-05
-0.000236229
0.000388452
-1.00425e-05
-0.000275543
0.000357951
-7.81514e-06
-0.000312076
0.000327196
-5.87227e-06
-0.000346999
0.000296788
-4.30068e-06
-0.000381718
0.000267111
-3.14704e-06
-0.000418027
0.000238346
-2.44916e-06
-0.00045841
0.000210504
-2.26364e-06
-0.000506371
0.000183107
-2.72311e-06
-0.000566775
0.000154614
-4.09157e-06
-0.000645458
0.000120548
-6.82652e-06
-0.000748096
7.02812e-05
-1.14193e-05
-0.000874019
-1.95816e-05
-1.89566e-05
-0.000997147
-0.000197859
-3.18017e-05
-0.00101843
-0.000554008
-5.01006e-05
-0.000771362
-0.00110234
-7.67272e-05
-0.00190756
-0.000138052
-4.55636e-05
0.000309379
-1.94935e-05
-0.00011049
0.000495164
-2.14335e-05
-0.000170203
0.000504744
-1.91453e-05
-0.000222032
0.0004742
-1.5483e-05
-0.000266797
0.000437025
-1.1866e-05
-0.000306324
0.000400074
-8.51568e-06
-0.000342371
0.000364706
-5.6026e-06
-0.000376487
0.000331356
-3.20715e-06
-0.000410257
0.000300458
-1.35554e-06
-0.000445615
0.000272531
-4.91557e-08
-0.000485619
0.00024856
8.64447e-07
-0.000535246
0.0002299
1.45818e-06
-0.000602977
0.000218316
1.9341e-06
-0.0007016
0.000213446
2.69617e-06
-0.000847172
0.000207829
4.92736e-06
-0.00104419
0.000166911
1.13477e-05
-0.00125826
2.41979e-06
2.65636e-05
-0.00130947
-0.000517452
5.30037e-05
-0.000948904
-0.00145654
5.91263e-05
-0.00286194
-8.96419e-05
-7.68398e-05
0.000392051
-2.81346e-05
-0.000148265
0.000574754
-3.19013e-05
-0.000207364
0.000571247
-2.78235e-05
-0.000256336
0.000529223
-2.19483e-05
-0.00029931
0.000484539
-1.56898e-05
-0.000337699
0.000441424
-9.92781e-06
-0.000372591
0.000401039
-5.00058e-06
-0.000404876
0.000363703
-1.03728e-06
-0.000435872
0.000330275
1.98373e-06
-0.000467253
0.000301572
4.23124e-06
-0.000502108
0.000279854
6.01706e-06
-0.000545397
0.000268058
7.93169e-06
-0.00060699
0.000272453
1.12577e-05
-0.000701427
0.00029682
1.88379e-05
-0.000850509
0.00034084
3.75654e-05
-0.00104823
0.000343458
8.12365e-05
-0.00126898
0.000197305
0.000168365
-0.00130845
-0.000499822
0.000289232
-0.000863587
-0.00186196
0.0002967
-0.00369058
-6.48636e-05
-5.96077e-05
0.000457972
-4.30462e-05
-0.00016407
0.000691009
-4.24164e-05
-0.000245102
0.000662685
-3.5104e-05
-0.000305497
0.000598471
-2.41663e-05
-0.00034984
0.000535604
-1.47069e-05
-0.000383023
0.000478855
-6.33862e-06
-0.000408973
0.000428942
5.60931e-07
-0.000430002
0.000384886
5.71069e-06
-0.000448117
0.00034683
9.65322e-06
-0.000464104
0.000314337
1.26409e-05
-0.000479525
0.000290264
1.52552e-05
-0.000496185
0.000277347
1.87764e-05
-0.00052053
0.000285788
2.62923e-05
-0.000559317
0.0003192
4.4505e-05
-0.000636867
0.000394941
8.89959e-05
-0.000742637
0.000419731
0.000184545
-0.000896652
0.000322718
0.000360195
-0.000949167
-0.000466399
0.00053457
-0.000578494
-0.00216322
0.0004109
-0.00422811
-0.000209076
-0.000202104
0.000665617
-5.63896e-05
-0.000263988
0.00076211
-6.47638e-05
-0.000315289
0.000723813
-5.50895e-05
-0.000356552
0.000648835
-3.90803e-05
-0.000374475
0.000561362
-2.19342e-05
-0.000377156
0.000487221
-7.23101e-06
-0.000370763
0.000425884
4.38414e-06
-0.00035808
0.000373307
1.28506e-05
-0.00034257
0.000330271
1.88613e-05
-0.000323862
0.000292473
2.27042e-05
-0.000304256
0.000265242
2.54669e-05
-0.000280274
0.000245017
2.84824e-05
-0.000253263
0.000246239
3.62084e-05
-0.000213256
0.000260968
5.61295e-05
-0.000159233
0.000316379
0.000107675
-0.000100799
0.00033415
0.000211927
5.87925e-06
0.000205809
0.000388265
-4.43429e-05
-0.000426516
0.000561061
8.6347e-05
-0.0022243
0.000303516
-0.00418015
-0.00040903
-0.000656245
0.00130279
-0.00012619
-0.000615717
0.000730417
-9.72832e-05
-0.000484929
0.000606727
-6.76443e-05
-0.000305848
0.000487082
-3.73707e-05
-0.000120886
0.000393183
-1.43636e-05
5.72955e-05
0.000323597
4.52369e-06
0.000221351
0.000273656
1.91336e-05
0.00036996
0.000233133
2.98705e-05
0.000503317
0.000201912
3.74851e-05
0.000621821
0.000175659
4.1563e-05
0.000731015
0.000154629
4.27182e-05
0.000831412
0.000139935
4.17351e-05
0.000939081
0.000130532
4.13068e-05
0.00105951
0.000127164
4.18228e-05
0.00123814
0.000124039
6.46184e-05
0.00146016
9.60509e-05
0.000107843
0.00171729
-3.59412e-05
0.00016744
0.0017759
-0.00044155
0.000309288
0.00123895
-0.00166877
0.000107782
-0.0030826
-0.000527679
0.00127788
-0.000118902
0.00199208
-0.000130872
0.00258926
-0.000128661
0.0030756
-0.00011679
0.00347512
-0.00010017
0.0038091
-8.34382e-05
0.00409511
-6.43217e-05
0.00434053
-4.75574e-05
0.00455416
-3.00247e-05
0.00473841
-1.46647e-05
0.00490013
-3.32601e-06
0.0050426
9.62456e-06
0.00517294
1.24695e-05
0.00529871
2.15811e-05
0.00541369
2.40811e-05
0.00551376
2.43976e-05
0.00546863
4.32596e-05
0.00503413
-1.47236e-06
0.00335771
-5.55846e-05
-0.000550931
-4.99576e-06
5.07346e-06
-5.60694e-07
-1.50418e-05
1.03575e-05
-5.05756e-07
-2.60907e-05
1.14129e-05
-4.17005e-07
-3.68867e-05
1.11678e-05
-3.38927e-07
-4.70438e-05
1.05112e-05
-3.02003e-07
-5.63354e-05
9.61948e-06
-3.0007e-07
-6.45422e-05