/*--------------------------------*- C++ -*----------------------------------*\
  =========                 |
  \\      /  F ield         | OpenFOAM: The Open Source CFD Toolbox
   \\    /   O peration     | Website:  https://openfoam.org
    \\  /    A nd           | Version:  10
     \\/     M anipulation  |
\*---------------------------------------------------------------------------*/
FoamFile
{
    format      ascii;
    class       surfaceScalarField;
    location    "5.825";
    object      phi;
}
// * * * * * * * * * * * * * * * * * * * * * * * * * * * * * * * * * * * * * //

dimensions      [0 3 -1 0 0 0 0];

internalField   nonuniform List<scalar> 
760
(
-9.05391e-06
9.05391e-06
-3.00155e-05
2.09616e-05
-5.4809e-05
2.47935e-05
-8.01775e-05
2.53684e-05
-0.000105071
2.48935e-05
-0.000129048
2.39771e-05
-0.000151681
2.26327e-05
-0.000172399
2.07179e-05
-0.000190452
1.80531e-05
-0.000204898
1.44466e-05
-0.000214611
9.71211e-06
-0.000218308
3.69702e-06
-0.000214632
-3.67539e-06
-0.000202333
-1.22997e-05
-0.000180515
-2.18179e-05
-0.000149001
-3.15139e-05
-0.000108931
-4.00695e-05
-6.38207e-05
-4.51106e-05
-2.16582e-05
-4.21624e-05
-2.16582e-05
-2.20295e-05
3.10834e-05
-6.25672e-05
6.14993e-05
-0.000108779
7.10051e-05
-0.000155449
7.20388e-05
-0.000200612
7.0056e-05
-0.000243234
6.65998e-05
-0.000282396
6.1794e-05
-0.000317053
5.53756e-05
-0.000345978
4.69776e-05
-0.000367729
3.61978e-05
-0.000380632
2.26156e-05
-0.000382963
6.02743e-06
-0.000372877
-1.37616e-05
-0.000348699
-3.64778e-05
-0.00030938
-6.11367e-05
-0.000254946
-8.5948e-05
-0.000187344
-0.000107671
-0.000112055
-0.0001204
-4.09975e-05
-0.00011322
-6.26557e-05
-2.73655e-05
5.84488e-05
-7.61464e-05
0.00011028
-0.000131126
0.000125984
-0.000186281
0.000127194
-0.000239386
0.00012316
-0.000289268
0.000116482
-0.000334897
0.000107423
-0.000375134
9.56124e-05
-0.000408652
8.04959e-05
-0.000433899
6.14449e-05
-0.000449122
3.78387e-05
-0.000452311
9.2158e-06
-0.000441196
-2.4876e-05
-0.000413788
-6.38861e-05
-0.00036856
-0.000106365
-0.000305141
-0.000149367
-0.000225392
-0.00018742
-0.000135545
-0.000210247
-4.99187e-05
-0.000198846
-0.000112574
-2.93909e-05
8.78398e-05
-8.18548e-05
0.000162744
-0.000140823
0.000184952
-0.000199924
0.000186296
-0.000256916
0.000180152
-0.000310679
0.000170246
-0.000360245
0.000156989
-0.000404536
0.000139904
-0.000442266
0.000118226
-0.000471862
9.10415e-05
-0.000491417
5.73932e-05
-0.000498688
1.64866e-05
-0.000490943
-3.26207e-05
-0.00046523
-8.95984e-05
-0.000418958
-0.000152637
-0.000350601
-0.000217724
-0.000261397
-0.000276624
-0.000158191
-0.000313453
-5.82501e-05
-0.000298787
-0.000170825
-3.05235e-05
0.000118363
-8.55195e-05
0.00021774
-0.00014741
0.000246843
-0.000209577
0.000248463
-0.000269833
0.000240407
-0.000327193
0.000227606
-0.000380846
0.000210642
-0.000429869
0.000188926
-0.000473098
0.000161455
-0.000509005
0.000126949
-0.000535555
8.39425e-05
-0.000550083
3.1015e-05
-0.000549255
-3.34487e-05
-0.000528772
-0.000110082
-0.00048427
-0.000197139
-0.000412146
-0.000289849
-0.000311922
-0.000376848
-0.000190827
-0.000434547
-7.05728e-05
-0.000419042
-0.000241397
-3.16411e-05
0.000150004
-8.92519e-05
0.000275351
-0.000154243
0.000311834
-0.000219732
0.000313952
-0.000283609
0.000304285
-0.000345087
0.000289084
-0.000403589
0.000269143
-0.000458447
0.000243784
-0.000508738
0.000211747
-0.000553101
0.000171311
-0.000589489
0.000120331
-0.00061489
5.64158e-05
-0.000625239
-2.30992e-05
-0.00061444
-0.000120882
-0.000575501
-0.000236077
-0.000501338
-0.000364012
-0.000388018
-0.000490168
-0.000241824
-0.000580741
-9.07574e-05
-0.000570108
-0.000332155
-3.2966e-05
0.00018297
-9.36062e-05
0.000335991
-0.000162157
0.000380385
-0.00023141
0.000383205
-0.00029936
0.000372236
-0.000365475
0.000355199
-0.000429511
0.000333179
-0.00049119
0.000305463
-0.00055001
0.000270567
-0.000604998
0.000226299
-0.000654351
0.000169684
-0.000694892
9.6956e-05
-0.000722305
4.31452e-06
-0.000727993
-0.000115194
-0.000701673
-0.000262397
-0.000630738
-0.000434947
-0.000504565
-0.000616341
-0.000324726
-0.00076058
-0.000126153
-0.000768681
-0.000458308
-3.45336e-05
0.000217504
-9.86794e-05
0.000400137
-0.000171239
0.000452944
-0.0002446
0.000456566
-0.000316884
0.00044452
-0.00038788
0.000426195
-0.000457789
0.000403088
-0.000526893
0.000374567
-0.000595362
0.000339036
-0.000662978
0.000293915
-0.000728693
0.000235399
-0.000789931
0.000158195
-0.000841193
5.55766e-05
-0.000874338
-8.2049e-05
-0.000873699
-0.000263037
-0.000819109
-0.000489536
-0.000688022
-0.000747428
-0.000468433
-0.00098017
-0.000194837
-0.00104228
-0.000653144
-3.63808e-05
0.000253885
-0.000104537
0.000468293
-0.000181483
0.00052989
-0.000259109
0.000534192
-0.000335679
0.000521089
-0.000411371
0.000501887
-0.000486944
0.000478661
-0.000563428
0.00045105
-0.000641964
0.000417572
-0.000723556
0.000375508
-0.000808591
0.000320434
-0.00089595
0.000245554
-0.000981374
0.000141001
-0.00105764
-5.78239e-06
-0.00110525
-0.000215427
-0.00109603
-0.00049876
-0.000988184
-0.00085527
-0.000735855
-0.0012325
-0.000340799
-0.00143733
-0.000993944
-3.86287e-05
0.000292513
-0.000111394
0.000541058
-0.000193046
0.000611543
-0.000274872
0.000616017
-0.000355298
0.000601516
-0.000434949
0.000581538
-0.000515231
0.000558942
-0.000598077
0.000533897
-0.000685907
0.000505402
-0.000781508
0.000471108
-0.000887713
0.000426639
-0.00100665
0.000364487
-0.00113812
0.00027247
-0.00127637
0.000132469
-0.0014099
-8.18882e-05
-0.00150366
-0.000405
-0.00148727
-0.000871669
-0.00123551
-0.00148425
-0.000642919
-0.00202992
-0.00163686
-4.15589e-05
0.000334072
-0.000119761
0.00061926
-0.000206427
0.000698209
-0.000292152
0.000701742
-0.000375571
0.000684935
-0.000457796
0.000663762
-0.000540911
0.000642057
-0.000627807
0.000620794
-0.000722337
0.000599931
-0.000829527
0.000578299
-0.000955705
0.000552816
-0.00110827
0.000517051
-0.00129493
0.000459131
-0.00152161
0.000359152
-0.00178994
0.000186442
-0.00207604
-0.000118908
-0.00225468
-0.000693025
-0.00203294
-0.001706
-0.00113211
-0.00293076
-0.00276897
-4.57359e-05
0.000379808
-0.000130642
0.000704166
-0.000222674
0.000790241
-0.000311751
0.000790819
-0.000396826
0.000770011
-0.000479541
0.000746477
-0.000562616
0.000725132
-0.000649771
0.000707949
-0.000746173
0.000696333
-0.000859125
0.00069125
-0.00099904
0.000692731
-0.00118073
0.000698743
-0.00142486
0.000703256
-0.00175869
0.00069299
-0.00220643
0.000634181
-0.00273668
0.000411336
-0.00313368
-0.000296025
-0.0028718
-0.00196787
-0.00162857
-0.00417399
-0.00439754
-5.21663e-05
0.000431974
-0.000145753
0.000797753
-0.000243632
0.00088812
-0.000335315
0.000882502
-0.00042022
0.000854915
-0.000500617
0.000826874
-0.000579789
0.000804304
-0.000661849
0.000790009
-0.000752598
0.000787082
-0.000860801
0.000799454
-0.00100015
0.000832083
-0.00119247
0.000891058
-0.00147205
0.000982835
-0.00188523
0.00110617
-0.00246671
0.00121566
-0.0031331
0.00107773
-0.00354814
0.000119012
-0.00318618
-0.00232983
-0.00188194
-0.00547823
-0.00627948
-6.35373e-05
0.000495512
-0.000168998
0.000903214
-0.000272458
0.00099158
-0.00036465
0.000974694
-0.000446871
0.000937135
-0.000522088
0.000902092
-0.000593298
0.000875514
-0.000664326
0.000861037
-0.000740574
0.00086333
-0.000830413
0.000889293
-0.000947723
0.000949393
-0.00111549
0.00105883
-0.00137012
0.00123746
-0.00175173
0.00148778
-0.00227081
0.00173474
-0.00280539
0.00161231
-0.00309585
0.000409468
-0.002803
-0.00262268
-0.00184302
-0.0064382
-0.0081225
-7.73428e-05
0.000572855
-0.000198169
0.00102404
-0.000310515
0.00110393
-0.000406168
0.00107035
-0.00048491
0.00101588
-0.00055109
0.000968271
-0.000608587
0.000933011
-0.000660708
0.000913159
-0.000710737
0.000913359
-0.000763241
0.000941796
-0.000826534
0.00101269
-0.000913527
0.00114582
-0.00104658
0.00137052
-0.00123942
0.00168061
-0.00149698
0.00199231
-0.00172015
0.00183548
-0.00186988
0.000559202
-0.00186383
-0.00262874
-0.00142541
-0.00687663
-0.00954791
-0.000143917
0.000716771
-0.000278945
0.00115907
-0.00038024
0.00120522
-0.000456762
0.00114687
-0.000519677
0.00107879
-0.000572822
0.00102142
-0.000616719
0.000976908
-0.000650283
0.000946723
-0.000672124
0.000935201
-0.000679744
0.000949416
-0.000670792
0.00100373
-0.000641526
0.00111656
-0.000591186
0.00132018
-0.00050367
0.0015931
-0.000388304
0.00187694
-0.000284192
0.00173137
-0.000278532
0.000553542
-0.000614493
-0.00229278
-0.000726572
-0.00676455
-0.0102745
-9.4498e-05
0.000811269
-0.000293191
0.00135776
-0.000437803
0.00134983
-0.0005362
0.00124527
-0.000600267
0.00114286
-0.000639815
0.00106096
-0.000659467
0.00099656
-0.000659896
0.000947152
-0.000638739
0.000914044
-0.00058778
0.000898457
-0.000495809
0.000911762
-0.000341905
0.000962651
-0.000100981
0.00107925
0.000242936
0.00124918
0.00069279
0.00142709
0.00110742
0.00131674
0.00119914
0.000461816
0.000607553
-0.00170118
7.08337e-05
-0.00622783
-0.0102036
-0.000387898
0.00119917
-0.000472348
0.00144221
-0.000555582
0.00143307
-0.000631104
0.00132079
-0.000661857
0.00117361
-0.000654599
0.0010537
-0.000616344
0.000958305
-0.00054791
0.000878718
-0.000452083
0.000818217
-0.00032154
0.000767913
-0.000148897
0.00073912
8.52616e-05
0.000728492
0.000406898
0.000757619
0.000840556
0.000815521
0.00139127
0.000876375
0.00190982
0.000798191
0.00226104
0.000110596
0.00192044
-0.00136058
0.00101251
-0.0053199
-0.00919114
-0.00135433
0.00255349
-0.00131934
0.00140723
-0.00107428
0.001188
-0.000719696
0.000966207
-0.000342693
0.000796611
3.76588e-05
0.000673352
0.000408238
0.000587726
0.000766879
0.000520077
0.00111407
0.000471022
0.00145256
0.00042943
0.00179118
0.000400495
0.00213798
0.000381699
0.00252445
0.000371145
0.0029661
0.000373874
0.00351548
0.000326994
0.00408643
0.00022724
0.00441572
-0.000218693
0.004267
-0.00121187
0.00266362
-0.00371651
-0.00652752
0.00255349
0.00396072
0.00514872
0.00611493
0.00691154
0.00758489
0.00817262
0.0086927
0.00916372
0.00959315
0.00999364
0.0103753
0.0107465
0.0111204
0.0114474
0.0116746
0.0114559
0.010244
0.00652752
)
;

boundaryField
{
    movingWall
    {
        type            calculated;
        value           uniform 0;
    }
    fixedWalls
    {
        type            calculated;
        value           uniform 0;
    }
    frontAndBack
    {
        type            empty;
        value           nonuniform List<scalar> 0();
    }
}


// ************************************************************************* //
