/*--------------------------------*- C++ -*----------------------------------*\
  =========                 |
  \\      /  F ield         | OpenFOAM: The Open Source CFD Toolbox
   \\    /   O peration     | Website:  https://openfoam.org
    \\  /    A nd           | Version:  10
     \\/     M anipulation  |
\*---------------------------------------------------------------------------*/
FoamFile
{
    format      ascii;
    class       surfaceScalarField;
    location    "8.675";
    object      phi;
}
// * * * * * * * * * * * * * * * * * * * * * * * * * * * * * * * * * * * * * //

dimensions      [0 3 -1 0 0 0 0];

internalField   nonuniform List<scalar> 
928
(
0.0975381
0.00246187
0.103503
-0.00596478
0.107337
-0.00383403
-0.00966803
0.117005
0.0958341
0.00662778
0.106882
-0.017013
0.105053
-0.00200501
-0.0198845
0.11527
0.0955153
0.0111125
0.109895
-0.0313926
0.105383
0.00250715
-0.0408824
0.126381
0.100378
0.0107349
0.09114
-0.022155
0.0951219
-0.00147469
0.145226
-0.0909864
0.111797
0.0052076
-0.0168088
0.128606
0.111958
0.0085192
-0.0423363
0.137486
0.130184
0.00471576
-0.0488803
0.136728
0.149942
0.101061
0.128157
0.000449274
0.12836
-0.000203603
0.129421
-0.00106019
-0.0012446
0.130665
0.138175
-0.000240273
0.138158
-0.000186299
0.138439
-0.0013414
-0.00281422
0.140009
0.139659
-0.00317118
0.14356
-0.00408729
0.146414
-0.00419511
0.00127094
0.142328
0.105425
-0.00753443
0.0836849
0.0176525
0.092126
-0.0126363
0.0830361
0.0103609
0.131024
-0.000359021
0.13105
-2.55171e-05
0.129036
0.00201336
0.127017
0.00201942
0.125345
0.00167198
0.124024
0.00132142
0.123785
0.000238701
0.123576
0.000209024
0.124263
-0.000687223
0.124509
-0.000245743
0.125851
-0.00134168
0.126583
-0.000732773
0.1269
-0.000316312
0.126164
0.000735382
0.124294
0.00187055
0.122209
0.00208441
0.119424
0.00278495
0.117502
0.00192214
0.115309
0.00219296
0.11457
0.000739382
0.11379
0.000780208
0.114114
-0.000324733
0.114803
-0.000688674
0.115115
-0.000312334
0.115433
-0.000318093
0.114463
0.00097037
0.113592
0.000871167
0.111242
0.00234985
0.10913
0.00211207
0.106512
0.00261785
0.104372
0.00214023
0.103099
0.00127291
0.102041
0.00105799
0.102587
-0.000546441
0.102776
-0.000188311
0.104167
-0.001391
0.104546
-0.00037955
0.104691
-0.000145005
0.103805
0.000886755
0.00209681
0.139695
-4.56742e-05
0.138186
0.00148363
0.13737
0.00282996
0.136642
0.00274696
0.134414
0.00389992
0.132914
0.00282179
0.132755
0.000397128
0.132359
0.000605411
0.133035
-0.00136311
0.13413
-0.00134081
0.136059
-0.00327055
0.137075
-0.00174899
0.137582
-0.000823601
0.137417
0.000900679
0.136078
0.00320959
0.13497
0.0031923
0.13277
0.00498483
0.131234
0.00345786
0.129259
0.0041683
0.127988
0.0020109
0.127332
0.00143576
0.127273
-0.000265404
0.128108
-0.00152352
0.128583
-0.000788008
0.129772
-0.00150683
0.129215
0.00152728
0.129055
0.00103173
0.127305
0.00409895
0.125993
0.00342406
0.124132
0.00447895
0.121997
0.00427518
0.120994
0.0022758
0.119452
0.00260026
0.119685
-0.000778763
0.119835
-0.000339084
0.121116
-0.00267174
0.122058
-0.00132166
0.12277
-0.000856863
0.123521
0.000135857
0.00297086
0.141342
0.000941299
0.14038
0.00244523
0.14013
0.00307992
0.139588
0.0032886
0.139381
0.00410701
0.137813
0.00439002
0.135531
0.00267949
0.134042
0.00209371
0.133927
-0.00124756
0.135287
-0.00270058
0.136146
-0.0041302
0.137571
-0.00317385
0.139484
-0.00273651
0.141415
-0.00103038
0.143032
0.00159237
0.143358
0.00286611
0.142296
0.00604737
0.140304
0.00544978
0.138061
0.00641146
0.136365
0.00370628
0.135129
0.00267236
0.13416
0.000702971
0.133137
-0.000500443
0.132668
-0.000318324
0.132582
-0.00142136
0.132646
0.00146316
0.132376
0.00130229
0.13159
0.00488486
0.130165
0.00484904
0.128524
0.00611978
0.126712
0.00608701
0.125051
0.00393712
0.123659
0.0039919
0.122862
1.80718e-05
0.122154
0.000369039
0.122747
-0.00326482
0.12338
-0.00195457
0.124702
-0.00217815
0.126351
-0.00151313
0.00272694
0.0831478
0.000829622
0.0924635
-0.00687055
0.0858463
0.00969721
0.0810577
0.00807718
0.0797284
0.00543627
0.0739366
0.0101819
0.070621
0.0059951
0.0706648
0.00204986
0.0722969
-0.00287967
0.0744948
-0.00489848
0.0780997
-0.00773503
0.0841867
-0.00926084
0.0901367
-0.00868656
0.0965429
-0.00743659
0.102902
-0.00476685
0.108416
-0.00264759
0.112952
0.00151117
0.114057
0.00434492
0.114354
0.00611443
0.112386
0.0056747
0.109039
0.00601848
0.104205
0.00553771
0.101003
0.00270093
0.100099
0.000586144
0.0996726
-0.000995136
0.101582
-0.000446314
0.103397
-0.000512177
0.107329
0.000952138
0.109637
0.00254135
0.111592
0.00416492
0.111994
0.0056844
0.109834
0.0060979
0.107318
0.00650706
0.102852
0.00448469
0.100493
0.00272821
0.0968691
0.000358795
0.0969716
-0.00205715
0.0986556
-0.00386215
0.10128
-0.00413746
-0.000504459
0.111572
-0.000836689
0.0894953
-7.87463e-05
0.090506
-0.00248546
-0.000480375
0.109205
-0.0100414
0.0880966
0.0210294
0.0851993
0.000411815
0.0847189
-0.00806492
0.000530498
-0.0287712
0.0383588
-0.00763991
-0.0337676
-0.0152731
0.0179941
-0.0115185
0.012049
0.0164837
0.0103566
-0.00452163
-0.0127622
-0.0135586
-0.00623608
-0.00816721
0.0269909
0.000638941
-0.0156767
-0.00138716
0.0117233
-0.0133129
0.0200029
-0.00890896
0.00103233
0.00600011
-0.00472721
0.00316819
0.00882703
0.00375176
0.00146628
0.00966398
-0.00879188
0.0146335
-0.00986797
0.0162265
-0.00932803
0.0167831
-0.00981749
0.0174713
-0.00937472
0.0186578
-0.0086231
0.0206967
-0.0068058
0.0218987
-0.00384958
0.0227969
0.000613
0.0237575
0.00338436
0.0231707
0.00670122
0.0217523
0.00709302
0.0223725
0.00539834
0.0238043
0.00410593
0.025702
0.000803191
0.0283468
-0.00205866
0.0304272
-0.00307551
0.0337233
-0.00374246
0.0370833
-0.00387217
0.0384209
-0.000385452
0.0400453
0.000916977
0.040987
0.00322317
0.039984
0.00668742
0.0394904
0.0065915
0.0397306
0.00626689
0.0391981
0.00501714
0.0404635
0.00146288
0.043227
-0.0024048
0.0447009
-0.00353099
0.0482933
-0.00745456
0.0521006
-0.0079448
-0.00211092
0.00310247
0.0103298
-0.00945802
-0.00311621
-0.00214496
0.00441025
0.0134661
0.00439184
0.0161549
-0.00165644
0.0152756
-0.00384786
0.0218049
0.00229767
0.0287984
-0.00552725
0.029349
-0.00934244
0.0246282
-0.00514721
0.0200789
-0.0047787
0.0157958
-0.00553438
0.012718
-0.00629691
0.0108047
-0.00670979
0.00910005
-0.00510118
0.00742094
-0.00217047
0.00741047
0.000623475
0.00904063
0.00175419
0.011275
0.0044669
0.0136341
0.00473387
0.0160999
0.00293258
0.0193999
0.00080586
0.0219999
-0.00179679
0.0230507
-0.00310943
0.0243675
-0.00439234
0.0257723
-0.00514724
0.0267716
-0.00487147
0.0282888
-0.00190263
0.0301495
-0.00094375
0.0321038
0.00126887
0.0348066
0.00398462
0.0382851
0.00311298
0.040957
0.00359507
0.0439133
0.00206078
0.0460216
-0.000645352
0.0468802
-0.00326344
0.0478872
-0.00453794
0.0467083
-0.0062757
0.0458227
-0.00705917
-0.0028949
0.1009
-0.0109418
0.0939861
0.0279437
0.0968361
-0.00243823
0.0380987
0.143456
0.0958578
-0.00679961
0.107182
0.01662
0.104014
0.0007297
0.0191587
0.122954
0.0960495
-0.0028491
0.106181
0.00648843
0.103888
0.00302255
0.00978817
0.113259
0.0971509
0.103639
0.106662
0.11645
0.151032
-0.00757518
0.045647
0.105385
0.124775
-0.00939685
0.0420286
0.128394
0.109149
-0.00528743
0.0165254
0.134653
0.111163
0.127688
0.111209
0.00622477
0.111687
0.00987854
0.102276
-0.0033515
-0.00120393
0.0972439
0.134154
0.000464446
0.141839
0.00219385
0.135238
0.00324935
0.000447856
0.133586
0.134507
0.000609712
0.135843
0.000857816
0.137261
0.00183175
0.00114492
0.136564
0.128298
0.129156
0.130987
0.132132
0.103182
0.00439167
0.0995876
0.000478209
0.101712
0.00228552
0.104913
0.00119084
0.105883
-0.00262584
0.108852
-0.00681755
0.117572
-0.00642152
0.12015
-0.00810534
0.120538
-0.0097312
0.123685
-0.00829336
0.125116
-0.00621014
0.122778
-0.00319648
0.117447
-0.000965468
0.108019
0.00271826
0.0983353
0.00458218
0.090307
0.0058579
0.0844945
0.00643589
0.080946
0.00530271
0.0807254
0.00468752
0.0831927
0.00226658
0.0851477
0.000977538
0.0885014
-0.00254778
0.0903803
-0.00367566
0.0915533
-0.00428243
0.091818
-0.00465706
0.0894795
-0.00280875
0.0878609
-0.00325292
0.0865339
-0.000575559
0.0864528
-0.000862726
0.0867547
0.000967004
0.0897951
0.000944272
0.093236
-0.000327926
0.0974637
-0.000632632
0.103618
-0.00409359
0.107055
-0.0040819
0.11079
-0.00699916
0.112098
-0.00584534
0.110265
-0.00444267
0.106668
-0.00346242
-0.000379156
0.135861
0.00211704
0.135343
0.000995801
0.136682
0.000946174
0.138542
-0.000668681
0.137968
-0.00205173
0.135634
-0.00448355
0.134224
-0.0050113
0.13081
-0.00469188
0.126964
-0.00588518
0.123344
-0.00467353
0.121894
-0.00476003
0.120145
-0.00144761
0.119307
-0.000127094
0.119258
0.00276758
0.119644
0.00419627
0.121045
0.00445608
0.122194
0.00528743
0.123907
0.00358999
0.124995
0.00359876
0.126955
0.000306969
0.128348
-0.000415115
0.128892
-0.00309222
0.129032
-0.00381537
0.128898
-0.00414835
0.128985
-0.00474465
0.128743
-0.00256663
0.128788
-0.00329815
0.128568
-0.000354793
0.128801
-0.00109572
0.129411
0.000356318
0.130596
-0.000240796
0.131868
-0.00159977
0.133073
-0.00183706
0.133692
-0.0047134
0.13332
-0.00370904
0.131879
-0.00555904
0.130076
-0.00404237
0.12894
-0.00330571
0.127293
-0.00181572
0.00110074
0.137555
0.00112582
0.138127
0.000424083
0.138813
0.000259643
0.138847
-0.000702753
0.137875
-0.00107897
0.135473
-0.00208178
0.133516
-0.00305482
0.131574
-0.00274964
0.12891
-0.00322141
0.126214
-0.0019773
0.123537
-0.00208333
0.12276
-0.000670602
0.122847
-0.000213999
0.124372
0.0012425
0.126458
0.00211073
0.12875
0.00216411
0.131431
0.00260639
0.133562
0.00145852
0.135739
0.00142202
0.13648
-0.000434143
0.136828
-0.000763272
0.13578
-0.00204431
0.134405
-0.00244005
0.132672
-0.00241539
0.130521
-0.00259309
0.129548
-0.00159381
0.127862
-0.0016123
0.128039
-0.000531633
0.127595
-0.000651626
0.128131
-0.000180341
0.128419
-0.000528675
0.127815
-0.000995036
0.127359
-0.00138196
0.125227
-0.00258088
0.12391
-0.0023921
0.121488
-0.00313687
0.11942
-0.00197457
0.117817
-0.00170306
0.116516
-0.00051421
0.000755958
0.133258
0.133682
0.133942
0.133239
0.13216
0.130078
0.127023
0.124274
0.121052
0.119075
0.116992
0.116321
0.116107
0.11735
0.11946
0.121624
0.124231
0.125689
0.127111
0.126677
0.125914
0.12387
0.12143
0.119014
0.116421
0.114827
0.113215
0.112683
0.112032
0.111851
0.111323
0.110328
0.108946
0.106365
0.103973
0.100836
0.0988614
0.0971583
0.0966441
)
;

boundaryField
{
    inlet
    {
        type            calculated;
        value           nonuniform List<scalar> 10(-0.1 -0.1 -0.1 -0.1 -0.1 -0.1 -0.1 -0.1 -0.1 -0.1);
    }
    outlet
    {
        type            calculated;
        value           nonuniform List<scalar> 10(0.101708 0.122647 0.126594 0.104511 0.0537071 0.0466066 0.104152 0.125813 0.116861 0.0974001);
    }
    obstacle
    {
        type            calculated;
        value           uniform 0;
    }
    upperWall
    {
        type            calculated;
        value           uniform 0;
    }
    lowerWall
    {
        type            calculated;
        value           uniform 0;
    }
    frontAndBack
    {
        type            empty;
        value           nonuniform List<scalar> 0();
    }
}


// ************************************************************************* //
