/*--------------------------------*- C++ -*----------------------------------*\
  =========                 |
  \\      /  F ield         | OpenFOAM: The Open Source CFD Toolbox
   \\    /   O peration     | Website:  https://openfoam.org
    \\  /    A nd           | Version:  10
     \\/     M anipulation  |
\*---------------------------------------------------------------------------*/
FoamFile
{
    format      ascii;
    class       volScalarField;
    location    "4.975";
    object      p;
}
// * * * * * * * * * * * * * * * * * * * * * * * * * * * * * * * * * * * * * //

dimensions      [0 2 -2 0 0 0 0];

internalField   nonuniform List<scalar> 
400
(
-7.12154e-11
-2.41991e-05
7.54429e-06
7.21308e-05
0.000175765
0.000319332
0.000503929
0.000730569
0.000999454
0.00130931
0.00165672
0.00203539
0.00243622
0.00284418
0.00324065
0.00360333
0.00390719
0.00412731
0.00425792
0.00424575
2.4937e-05
-8.53436e-08
3.44555e-05
9.80144e-05
0.00019835
0.00033704
0.000515647
0.000735579
0.000997423
0.00130034
0.00164128
0.00201338
0.00241136
0.00281778
0.00321494
0.00358044
0.00388853
0.00411387
0.00425193
0.00423817
-1.11779e-05
-4.20444e-05
-9.12585e-06
5.14221e-05
0.000148171
0.000282963
0.000457844
0.000674919
0.000935634
0.00124019
0.00158688
0.00197195
0.00238307
0.00281024
0.0032336
0.00362845
0.00396533
0.00421367
0.00436712
0.0043468
-8.78757e-05
-0.000123224
-9.2746e-05
-3.63899e-05
5.53521e-05
0.000184744
0.000354592
0.000568057
0.000827886
0.00113583
0.0014918
0.00189293
0.00233076
0.00279422
0.00326296
0.00370905
0.00409675
0.00438662
0.00456839
0.00454479
-0.000210819
-0.000250697
-0.000223682
-0.000172826
-8.75894e-05
3.48338e-05
0.000198226
0.000407117
0.000666031
0.000978866
0.00134801
0.00177294
0.00224888
0.00276492
0.00330044
0.00382381
0.00429098
0.00464776
0.00487582
0.00485164
-0.00037969
-0.000424829
-0.000402427
-0.000358787
-0.000282279
-0.000169488
-1.55021e-05
0.000185853
0.000441312
0.000757641
0.00114067
0.00159381
0.00211685
0.00270193
0.00332887
0.00396222
0.00454715
0.00500793
0.0053097
0.00529034
-0.000593745
-0.000645219
-0.000628787
-0.00059465
-0.00053005
-0.000430996
-0.000291383
-0.000103215
0.000142841
0.000457144
0.000850299
0.00133152
0.00190619
0.00257411
0.00331851
0.00410194
0.00485708
0.00547897
0.00589896
0.00589951
-0.000852318
-0.00091144
-0.000902549
-0.000880753
-0.000832213
-0.000752533
-0.000634537
-0.000468419
-0.000242061
5.90266e-05
0.000451369
0.000952022
0.00157487
0.00233348
0.00321924
0.00419929
0.00519557
0.00606751
0.00668198
0.00674459
-0.00115457
-0.00122278
-0.00122303
-0.00121675
-0.0011892
-0.00113595
-0.00104914
-0.000917494
-0.000726336
-0.00045696
-8.61823e-05
0.000413455
0.0010722
0.00190802
0.00294682
0.00416962
0.00549815
0.00675657
0.00770439
0.0079405
-0.00149945
-0.00157819
-0.00158883
-0.00160114
-0.0015998
-0.00158101
-0.00153692
-0.00145562
-0.00132077
-0.00111031
-0.000795073
-0.000337452
0.000308018
0.00118913
0.00236482
0.00385294
0.00561264
0.00746266
0.00900727
0.00969658
-0.00188599
-0.00197651
-0.00199774
-0.00203081
-0.00206035
-0.00208406
-0.00209523
-0.00208268
-0.00203019
-0.00191465
-0.00170343
-0.00135098
-0.00079469
4.7392e-05
0.00124995
0.002942
0.00518108
0.00789428
0.0105226
0.012243
-0.00231406
-0.00241701
-0.00244681
-0.00250074
-0.00256401
-0.00263688
-0.00271513
-0.00279005
-0.00284827
-0.00286969
-0.00282441
-0.00266757
-0.00233114
-0.00171392
-0.000687029
0.000892167
0.00338566
0.00709125
0.0114842
0.0151923
-0.00278612
-0.00290106
-0.00293347
-0.00300458
-0.00310045
-0.00322547
-0.00337948
-0.00355807
-0.00375386
-0.00395524
-0.00414404
-0.00429169
-0.00435324
-0.00426024
-0.00392124
-0.003188
-0.00158639
0.00221584
0.00833213
0.0153594
-0.00330666
-0.00342499
-0.00344375
-0.00352177
-0.00364635
-0.00382458
-0.00405893
-0.004351
-0.00470253
-0.00511571
-0.0055942
-0.00614525
-0.00678649
-0.00756789
-0.00865345
-0.0102786
-0.0121606
-0.0107469
-0.00422806
0.00727178
-0.00390933
-0.00404355
-0.00403606
-0.00411342
-0.00424584
-0.00445325
-0.0047475
-0.00513963
-0.00564306
-0.00627793
-0.00707879
-0.00810557
-0.00948272
-0.0114457
-0.0145867
-0.0197597
-0.0276966
-0.0305327
-0.0247247
-0.00766358
-0.00467273
-0.00460634
-0.00449702
-0.00449658
-0.00462525
-0.00488333
-0.00526762
-0.00578128
-0.0064408
-0.00727775
-0.00835465
-0.00978792
-0.0118266
-0.0148435
-0.0199434
-0.0279015
-0.0412008
-0.0480095
-0.0441597
-0.0199405
-0.0051556
-0.00559043
-0.00534763
-0.00541253
-0.00547595
-0.00566918
-0.00600706
-0.00651237
-0.00720984
-0.00813175
-0.00935033
-0.0109782
-0.0133661
-0.0168373
-0.0230318
-0.0314739
-0.0464024
-0.0533676
-0.0496438
-0.013553
-0.00848294
-0.00596627
-0.0054168
-0.00494762
-0.00498606
-0.00529191
-0.00580645
-0.00648363
-0.00733737
-0.00837709
-0.00969433
-0.0113323
-0.0137187
-0.0170531
-0.0226816
-0.0302803
-0.041386
-0.0447643
-0.033763
0.0188778
-0.00527165
-0.00821434
-0.00726107
-0.00738637
-0.00709003
-0.00702133
-0.00715385
-0.00752088
-0.00815448
-0.00900395
-0.0101673
-0.0116153
-0.0138031
-0.0167757
-0.021856
-0.0278736
-0.035555
-0.0287328
-0.00113215
0.0831176
-0.0302354
-0.00525689
-0.00395124
-0.00331416
-0.00324178
-0.00362846
-0.00436739
-0.0052089
-0.00627343
-0.00743191
-0.00891817
-0.0106856
-0.0130809
-0.0159347
-0.0194364
-0.0207343
-0.0168717
0.0124784
0.0827724
0.22141
)
;

boundaryField
{
    movingWall
    {
        type            zeroGradient;
    }
    fixedWalls
    {
        type            zeroGradient;
    }
    frontAndBack
    {
        type            empty;
    }
}


// ************************************************************************* //
