/*--------------------------------*- C++ -*----------------------------------*\
  =========                 |
  \\      /  F ield         | OpenFOAM: The Open Source CFD Toolbox
   \\    /   O peration     | Website:  https://openfoam.org
    \\  /    A nd           | Version:  10
     \\/     M anipulation  |
\*---------------------------------------------------------------------------*/
FoamFile
{
    format      ascii;
    class       volVectorField;
    location    "7.2";
    object      U;
}
// * * * * * * * * * * * * * * * * * * * * * * * * * * * * * * * * * * * * * //

dimensions      [0 1 -1 0 0 0 0];

internalField   nonuniform List<vector> 
400
(
(-0.000130389 0.000118279 0)
(-0.00100547 0.0003783 0)
(-0.00248681 0.000471763 0)
(-0.00398973 0.000498358 0)
(-0.00552421 0.000507566 0)
(-0.0070505 0.000514435 0)
(-0.00854971 0.000518163 0)
(-0.00999736 0.000512931 0)
(-0.0113539 0.000491227 0)
(-0.0125625 0.000444377 0)
(-0.0135464 0.00036287 0)
(-0.0142083 0.000237557 0)
(-0.0144338 6.19747e-05 0)
(-0.0140987 -0.00016956 0)
(-0.0130897 -0.000447197 0)
(-0.0113346 -0.000745215 0)
(-0.00885393 -0.00101112 0)
(-0.00587101 -0.00115882 0)
(-0.00253815 -0.00105781 0)
(-0.000387824 -0.000456662 0)
(-0.000424965 0.00102054 0)
(-0.00224588 0.00214179 0)
(-0.00503118 0.00254279 0)
(-0.00784668 0.00264498 0)
(-0.0106838 0.00264409 0)
(-0.0134591 0.00260204 0)
(-0.0161216 0.00252094 0)
(-0.0186171 0.00238259 0)
(-0.0208729 0.00216138 0)
(-0.0227938 0.00182762 0)
(-0.0242597 0.00134963 0)
(-0.0251246 0.00069727 0)
(-0.0252278 -0.000151789 0)
(-0.0243964 -0.00119286 0)
(-0.0224745 -0.00238025 0)
(-0.0193751 -0.00360661 0)
(-0.0151531 -0.00466936 0)
(-0.0101489 -0.00523668 0)
(-0.00461674 -0.00481598 0)
(-0.000857126 -0.00244261 0)
(-0.000551143 0.00262939 0)
(-0.00279975 0.00499078 0)
(-0.00617094 0.00581731 0)
(-0.00955218 0.00600409 0)
(-0.0129379 0.00595211 0)
(-0.0162304 0.0057891 0)
(-0.0193707 0.00552506 0)
(-0.0222986 0.00512955 0)
(-0.0249352 0.00455647 0)
(-0.0271784 0.00375103 0)
(-0.0288994 0.00265475 0)
(-0.0299415 0.00121313 0)
(-0.0301145 -0.000610799 0)
(-0.0292057 -0.00281045 0)
(-0.0270162 -0.00529702 0)
(-0.0234059 -0.00785688 0)
(-0.0183948 -0.0100799 0)
(-0.0123648 -0.0112752 0)
(-0.00560483 -0.0104287 0)
(-0.00101798 -0.00555518 0)
(-0.000591182 0.0043358 0)
(-0.00301922 0.00802029 0)
(-0.00665359 0.00927987 0)
(-0.0102853 0.0095394 0)
(-0.0139224 0.00942655 0)
(-0.0174678 0.00913875 0)
(-0.0208691 0.00869443 0)
(-0.0240741 0.00805148 0)
(-0.0270115 0.00714317 0)
(-0.0295853 0.00588702 0)
(-0.0316662 0.00419135 0)
(-0.0330854 0.00196808 0)
(-0.0336299 -0.000846064 0)
(-0.0330279 -0.00427364 0)
(-0.0309793 -0.0082034 0)
(-0.0272196 -0.0123264 0)
(-0.0216469 -0.015996 0)
(-0.0146531 -0.0180571 0)
(-0.0065478 -0.0167968 0)
(-0.00110089 -0.00894822 0)
(-0.000598256 0.00612103 0)
(-0.00311099 0.0112086 0)
(-0.00689273 0.0129244 0)
(-0.0106728 0.0132651 0)
(-0.0144747 0.0131029 0)
(-0.0182092 0.0127107 0)
(-0.0218388 0.0121175 0)
(-0.0253284 0.0112708 0)
(-0.0286249 0.0100827 0)
(-0.0316483 0.0084389 0)
(-0.0342765 0.00620374 0)
(-0.0363302 0.00323267 0)
(-0.0375673 -0.000603404 0)
(-0.0376335 -0.00536467 0)
(-0.0360779 -0.0109875 0)
(-0.032427 -0.0170872 0)
(-0.0263299 -0.0227382 0)
(-0.0180882 -0.0261444 0)
(-0.00795777 -0.0245415 0)
(-0.00118619 -0.0128945 0)
(-0.000595799 0.0079403 0)
(-0.00316688 0.0144983 0)
(-0.00706719 0.0166974 0)
(-0.0109744 0.0171364 0)
(-0.0149273 0.0169497 0)
(-0.0188488 0.0164931 0)
(-0.0227224 0.0158104 0)
(-0.0265385 0.0148415 0)
(-0.0302735 0.013478 0)
(-0.0338774 0.0115706 0)
(-0.0372533 0.00892814 0)
(-0.0402306 0.00532287 0)
(-0.0425253 0.000518306 0)
(-0.043714 -0.0056591 0)
(-0.0431666 -0.0132707 0)
(-0.040067 -0.0219384 0)
(-0.0336221 -0.0304482 0)
(-0.0237798 -0.0361242 0)
(-0.0104181 -0.0344711 0)
(-0.00132594 -0.017703 0)
(-0.000590425 0.009781 0)
(-0.00321636 0.0178747 0)
(-0.0072339 0.0205865 0)
(-0.0112663 0.0211439 0)
(-0.0153683 0.0209629 0)
(-0.0194775 0.0204921 0)
(-0.0236042 0.019797 0)
(-0.0277736 0.0188156 0)
(-0.0320049 0.0174239 0)
(-0.0362992 0.0154381 0)
(-0.0406139 0.0126045 0)
(-0.04482 0.00859086 0)
(-0.0486401 0.00300241 0)
(-0.0516091 -0.0045702 0)
(-0.0529205 -0.0144181 0)
(-0.0513373 -0.0263713 0)
(-0.0453304 -0.0390786 0)
(-0.0338338 -0.0488324 0)
(-0.0153521 -0.0480443 0)
(-0.00172354 -0.024119 0)
(-0.000582901 0.0116418 0)
(-0.0032656 0.0213403 0)
(-0.0074037 0.0245934 0)
(-0.0115563 0.0252855 0)
(-0.0157943 0.0251375 0)
(-0.0200718 0.0247035 0)
(-0.0244307 0.0240808 0)
(-0.0289401 0.0232167 0)
(-0.0336779 0.021983 0)
(-0.0387218 0.0201724 0)
(-0.0441251 0.017473 0)
(-0.0498674 0.0134372 0)
(-0.0557782 0.00745712 0)
(-0.0614556 -0.00120152 0)
(-0.0660607 -0.0132096 0)
(-0.0680083 -0.0290518 0)
(-0.0646549 -0.0477972 0)
(-0.0523372 -0.0651418 0)
(-0.0261527 -0.0678891 0)
(-0.00312216 -0.0340182 0)
(-0.000573864 0.0135226 0)
(-0.00331787 0.0248993 0)
(-0.00757922 0.0287157 0)
(-0.011837 0.0295472 0)
(-0.0161794 0.0294475 0)
(-0.0205761 0.0290918 0)
(-0.0251031 0.0286223 0)
(-0.02988 0.0280122 0)
(-0.0350579 0.0271514 0)
(-0.0408199 0.0258365 0)
(-0.0473687 0.023728 0)
(-0.0548937 0.0202875 0)
(-0.0634882 0.0147074 0)
(-0.0730278 0.0058864 0)
(-0.0831633 -0.00751651 0)
(-0.0923299 -0.0269991 0)
(-0.095958 -0.0540542 0)
(-0.0843742 -0.0855484 0)
(-0.0477209 -0.0987544 0)
(-0.00727103 -0.0517746 0)
(-0.000566673 0.0154265 0)
(-0.00338392 0.0285578 0)
(-0.00777335 0.032945 0)
(-0.0121115 0.0338993 0)
(-0.0165055 0.0338404 0)
(-0.0209384 0.0335822 0)
(-0.0255185 0.0333274 0)
(-0.0304158 0.0330957 0)
(-0.0358595 0.0328268 0)
(-0.0421566 0.0323694 0)
(-0.0497093 0.0314286 0)
(-0.0590235 0.0294818 0)
(-0.0706996 0.0256724 0)
(-0.0854358 0.0186921 0)
(-0.103797 0.00642103 0)
(-0.124779 -0.0152552 0)
(-0.139707 -0.0538755 0)
(-0.127914 -0.111002 0)
(-0.0804722 -0.147263 0)
(-0.0171622 -0.0854345 0)
(-0.000569889 0.0173682 0)
(-0.00348973 0.0323312 0)
(-0.00802187 0.0372698 0)
(-0.0124085 0.0382962 0)
(-0.0167816 0.0382343 0)
(-0.0211332 0.0380545 0)
(-0.0255973 0.0380345 0)
(-0.0303848 0.0382626 0)
(-0.0357903 0.0387648 0)
(-0.0422345 0.0395058 0)
(-0.0503245 0.0403473 0)
(-0.0609442 0.0409789 0)
(-0.0753808 0.0408287 0)
(-0.0955257 0.0387965 0)
(-0.123529 0.0316259 0)
(-0.157347 0.00901511 0)
(-0.180185 -0.048405 0)
(-0.163697 -0.14578 0)
(-0.115561 -0.213422 0)
(-0.0350931 -0.14409 0)
(-0.000601743 0.0193878 0)
(-0.00368808 0.0362648 0)
(-0.00839822 0.0417018 0)
(-0.0127976 0.0427041 0)
(-0.0170609 0.0425414 0)
(-0.0211851 0.0423611 0)
(-0.0253187 0.0425279 0)
(-0.0296911 0.0432141 0)
(-0.0346259 0.044569 0)
(-0.040605 0.0467468 0)
(-0.0483682 0.0499068 0)
(-0.0590662 0.0542082 0)
(-0.0744594 0.0597138 0)
(-0.0971918 0.0654508 0)
(-0.129812 0.0652741 0)
(-0.167455 0.0387318 0)
(-0.187619 -0.0441441 0)
(-0.167528 -0.183584 0)
(-0.136532 -0.282803 0)
(-0.0503633 -0.237746 0)
(-0.000692787 0.0215408 0)
(-0.00405717 0.0403496 0)
(-0.0090149 0.0461167 0)
(-0.0134032 0.0469227 0)
(-0.0174655 0.0465272 0)
(-0.0211969 0.0462336 0)
(-0.0247541 0.0464695 0)
(-0.0283522 0.0474927 0)
(-0.0322744 0.0495849 0)
(-0.0369488 0.0531213 0)
(-0.04305 0.0586344 0)
(-0.051647 0.066862 0)
(-0.0643209 0.0784792 0)
(-0.0828901 0.0916932 0)
(-0.10908 0.0959886 0)
(-0.136612 0.0624905 0)
(-0.149135 -0.0394954 0)
(-0.134468 -0.204577 0)
(-0.129229 -0.338363 0)
(-0.0477062 -0.346205 0)
(-0.000935593 0.0241192 0)
(-0.0048366 0.0451358 0)
(-0.0101268 0.0511716 0)
(-0.0144013 0.0516025 0)
(-0.0181144 0.050667 0)
(-0.0212933 0.0499122 0)
(-0.0240683 0.0498647 0)
(-0.0265856 0.0508602 0)
(-0.0290224 0.0532818 0)
(-0.0316236 0.0576738 0)
(-0.0347602 0.064849 0)
(-0.0389253 0.0758617 0)
(-0.0448481 0.0915824 0)
(-0.0525753 0.108836 0)
(-0.0635929 0.114272 0)
(-0.0728113 0.0758745 0)
(-0.0781955 -0.0317644 0)
(-0.0726548 -0.203454 0)
(-0.0943482 -0.367123 0)
(-0.0322075 -0.42775 0)
(-0.00129487 0.0272722 0)
(-0.00575582 0.0493028 0)
(-0.0116699 0.0546884 0)
(-0.0160322 0.0541225 0)
(-0.0195097 0.0526105 0)
(-0.0220371 0.0515644 0)
(-0.0238107 0.0513638 0)
(-0.0249471 0.0522556 0)
(-0.0254931 0.0546149 0)
(-0.0254389 0.0590271 0)
(-0.0247714 0.0663803 0)
(-0.0231747 0.077632 0)
(-0.0206111 0.093511 0)
(-0.0154222 0.110139 0)
(-0.010303 0.115106 0)
(-0.000280525 0.0773663 0)
(-0.00356359 -0.026475 0)
(-0.00704596 -0.182614 0)
(-0.0568561 -0.364078 0)
(-0.0161069 -0.477041 0)
(-0.00337131 0.0300548 0)
(-0.0101725 0.0572544 0)
(-0.0154625 0.0625703 0)
(-0.0188802 0.0614598 0)
(-0.0211562 0.0583971 0)
(-0.0226556 0.0557675 0)
(-0.02341 0.054085 0)
(-0.0233248 0.0536274 0)
(-0.0221969 0.054705 0)
(-0.0196979 0.0577715 0)
(-0.0154819 0.063574 0)
(-0.00853122 0.0727248 0)
(0.00133474 0.0857221 0)
(0.0169887 0.0989055 0)
(0.0335445 0.102865 0)
(0.0542783 0.0715894 0)
(0.0538012 -0.0183052 0)
(0.0473934 -0.147878 0)
(-0.028733 -0.341725 0)
(0.00131695 -0.503786 0)
(-0.00106027 0.0438094 0)
(-0.00825274 0.0593365 0)
(-0.0185461 0.0607074 0)
(-0.0221935 0.0564456 0)
(-0.0250486 0.0532925 0)
(-0.0259454 0.0511584 0)
(-0.0256089 0.0498825 0)
(-0.0239835 0.0493726 0)
(-0.0209075 0.0498077 0)
(-0.0159305 0.0514488 0)
(-0.00860979 0.0549272 0)
(0.00249853 0.0605018 0)
(0.0173863 0.0684836 0)
(0.0393458 0.0762298 0)
(0.0611052 0.0770014 0)
(0.0892249 0.0539295 0)
(0.0879835 -0.0126136 0)
(0.0801569 -0.1096 0)
(-0.00215788 -0.312368 0)
(0.0232522 -0.510363 0)
(-0.0125178 0.0324522 0)
(-0.0238343 0.0799948 0)
(-0.022737 0.0794173 0)
(-0.0282427 0.0743294 0)
(-0.0294115 0.0669866 0)
(-0.028795 0.0608722 0)
(-0.0261865 0.0559034 0)
(-0.0218364 0.0520306 0)
(-0.0158051 0.0492611 0)
(-0.0077127 0.0474302 0)
(0.00239274 0.0469047 0)
(0.0160019 0.0476742 0)
(0.0323098 0.0503362 0)
(0.0550085 0.0527558 0)
(0.0743507 0.0534256 0)
(0.10416 0.0406328 0)
(0.101978 0.000955561 0)
(0.113931 -0.0699143 0)
(0.0458401 -0.279972 0)
(0.058748 -0.495581 0)
(-0.0775102 0.0962608 0)
(-0.0632191 0.0590081 0)
(-0.0656072 0.059888 0)
(-0.0437568 0.0532214 0)
(-0.0264769 0.0462909 0)
(-0.00638579 0.0411436 0)
(0.0125763 0.0373853 0)
(0.0318211 0.0341875 0)
(0.0496065 0.0318652 0)
(0.0688013 0.0296786 0)
(0.0855141 0.0284461 0)
(0.106696 0.0275102 0)
(0.122065 0.0272197 0)
(0.151513 0.0272442 0)
(0.162183 0.0230181 0)
(0.204298 0.0151101 0)
(0.196335 -0.0191985 0)
(0.229326 -0.0770734 0)
(0.157833 -0.25493 0)
(0.126233 -0.436782 0)
(0.11953 0.140819 0)
(0.152274 0.086189 0)
(0.228843 0.0635901 0)
(0.284301 0.0481119 0)
(0.325607 0.037432 0)
(0.363867 0.0296492 0)
(0.392535 0.0242041 0)
(0.423695 0.0201464 0)
(0.44351 0.0172279 0)
(0.472169 0.0150081 0)
(0.484704 0.0132094 0)
(0.514402 0.0121145 0)
(0.519645 0.0109283 0)
(0.552936 0.010093 0)
(0.548185 0.00840879 0)
(0.582435 0.00395177 0)
(0.552397 -0.00532188 0)
(0.55877 -0.0275689 0)
(0.423401 -0.0733446 0)
(0.275951 -0.151989 0)
)
;

boundaryField
{
    movingWall
    {
        type            fixedValue;
        value           uniform (1 0 0);
    }
    fixedWalls
    {
        type            noSlip;
    }
    frontAndBack
    {
        type            empty;
    }
}


// ************************************************************************* //
