/*--------------------------------*- C++ -*----------------------------------*\
  =========                 |
  \\      /  F ield         | OpenFOAM: The Open Source CFD Toolbox
   \\    /   O peration     | Website:  https://openfoam.org
    \\  /    A nd           | Version:  10
     \\/     M anipulation  |
\*---------------------------------------------------------------------------*/
FoamFile
{
    format      ascii;
    class       volVectorField;
    location    "2.45";
    object      U;
}
// * * * * * * * * * * * * * * * * * * * * * * * * * * * * * * * * * * * * * //

dimensions      [0 1 -1 0 0 0 0];

internalField   nonuniform List<vector> 
400
(
(-0.000251691 0.000249562 0)
(-0.00111336 0.000424935 0)
(-0.00225783 0.000438134 0)
(-0.00330152 0.000416463 0)
(-0.00427891 0.000383091 0)
(-0.00516047 0.000340742 0)
(-0.0059234 0.000289871 0)
(-0.00654799 0.000230857 0)
(-0.00701593 0.00016425 0)
(-0.00731089 9.08713e-05 0)
(-0.00741913 1.20242e-05 0)
(-0.00732946 -7.18619e-05 0)
(-0.00703476 -0.000158112 0)
(-0.00653361 -0.000244296 0)
(-0.00583077 -0.000327391 0)
(-0.0049383 -0.000403816 0)
(-0.00387847 -0.000469281 0)
(-0.00269221 -0.000516556 0)
(-0.00135508 -0.000515953 0)
(-0.000317853 -0.000319101 0)
(-0.000440989 0.00111558 0)
(-0.00178423 0.00173343 0)
(-0.00348786 0.00177046 0)
(-0.00504888 0.00167694 0)
(-0.00650376 0.00153462 0)
(-0.00780899 0.00135506 0)
(-0.00893064 0.00114148 0)
(-0.0098402 0.000896641 0)
(-0.0105121 0.000623706 0)
(-0.0109241 0.000326422 0)
(-0.0110594 9.06061e-06 0)
(-0.0109037 -0.000322517 0)
(-0.0104481 -0.000660251 0)
(-0.0096934 -0.000994941 0)
(-0.00864795 -0.00131531 0)
(-0.00733034 -0.00160805 0)
(-0.00577348 -0.00185724 0)
(-0.00403422 -0.00203583 0)
(-0.0020896 -0.00203953 0)
(-0.000525323 -0.00134992 0)
(-0.00048724 0.00232463 0)
(-0.00196118 0.00348003 0)
(-0.00382251 0.00353832 0)
(-0.00552559 0.00334585 0)
(-0.0071117 0.00305553 0)
(-0.00853429 0.0026906 0)
(-0.00975721 0.00225855 0)
(-0.0107502 0.00176578 0)
(-0.0114864 0.00121925 0)
(-0.0119426 0.000626777 0)
(-0.0120994 -2.74543e-06 0)
(-0.0119403 -0.00065781 0)
(-0.0114557 -0.00132388 0)
(-0.0106442 -0.00198302 0)
(-0.00951258 -0.00261349 0)
(-0.00807838 -0.00318961 0)
(-0.00637529 -0.00368033 0)
(-0.00446449 -0.00403299 0)
(-0.00231961 -0.00405168 0)
(-0.00058579 -0.00276375 0)
(-0.000516645 0.00354593 0)
(-0.00208515 0.0052595 0)
(-0.00406777 0.00533865 0)
(-0.00588006 0.00504533 0)
(-0.007569 0.00460595 0)
(-0.00908616 0.00405521 0)
(-0.0103943 0.00340463 0)
(-0.0114625 0.00266403 0)
(-0.0122627 0.00184372 0)
(-0.0127702 0.000955018 0)
(-0.0129646 1.12414e-05 0)
(-0.0128262 -0.000972055 0)
(-0.0123404 -0.00197485 0)
(-0.0115018 -0.00297104 0)
(-0.0103127 -0.00392829 0)
(-0.00878651 -0.00480765 0)
(-0.00695504 -0.00556117 0)
(-0.00488317 -0.00610742 0)
(-0.0025413 -0.00615116 0)
(-0.000641722 -0.00423204 0)
(-0.000554687 0.00485157 0)
(-0.00224408 0.00716481 0)
(-0.004382 0.0072659 0)
(-0.00633494 0.00686529 0)
(-0.00815645 0.00626831 0)
(-0.00979594 0.00552204 0)
(-0.0112152 0.00464241 0)
(-0.0123826 0.00364266 0)
(-0.0132694 0.00253611 0)
(-0.0138497 0.00133686 0)
(-0.0140997 6.08273e-05 0)
(-0.0139965 -0.00127218 0)
(-0.01352 -0.00263797 0)
(-0.0126567 -0.00400349 0)
(-0.0114012 -0.00532582 0)
(-0.00975977 -0.00655113 0)
(-0.0077593 -0.00761103 0)
(-0.00546849 -0.00838843 0)
(-0.00285432 -0.00847337 0)
(-0.000721874 -0.00586005 0)
(-0.000605123 0.00626844 0)
(-0.00245292 0.00923612 0)
(-0.00479329 0.0093605 0)
(-0.00692889 0.00884381 0)
(-0.00892169 0.0080778 0)
(-0.0107186 0.00712342 0)
(-0.0122806 0.00600152 0)
(-0.013576 0.00472884 0)
(-0.0145758 0.00332129 0)
(-0.0152528 0.00179477 0)
(-0.0155806 0.000166586 0)
(-0.0155316 -0.0015424 0)
(-0.0150778 -0.00330504 0)
(-0.0141951 -0.00508288 0)
(-0.0128657 -0.00682322 0)
(-0.0110832 -0.00845585 0)
(-0.00886476 -0.00988707 0)
(-0.00628113 -0.0109537 0)
(-0.00329384 -0.0111074 0)
(-0.000835982 -0.00771532 0)
(-0.000669356 0.0078273 0)
(-0.00271786 0.0115182 0)
(-0.0053133 0.0116665 0)
(-0.00767715 0.0110214 0)
(-0.00988237 0.010071 0)
(-0.0118732 0.00889229 0)
(-0.0136104 0.00751187 0)
(-0.0150635 0.0059502 0)
(-0.0162042 0.00422522 0)
(-0.017005 0.00235328 0)
(-0.0174374 0.000350832 0)
(-0.0174687 -0.00176262 0)
(-0.017061 -0.00396114 0)
(-0.0161754 -0.00620414 0)
(-0.0147756 -0.00843138 0)
(-0.0128341 -0.0105557 0)
(-0.0103493 -0.012452 0)
(-0.00738794 -0.0138963 0)
(-0.0039015 -0.0141652 0)
(-0.000996377 -0.00988574 0)
(-0.000749125 0.00956406 0)
(-0.00304614 0.014063 0)
(-0.00595539 0.014234 0)
(-0.0085965 0.0134431 0)
(-0.0110569 0.0122876 0)
(-0.0132783 0.0108635 0)
(-0.0152228 0.00920475 0)
(-0.0168628 0.00733591 0)
(-0.0181729 0.00527646 0)
(-0.0191273 0.00304149 0)
(-0.0196966 0.000643674 0)
(-0.0198437 -0.00190297 0)
(-0.0195194 -0.00457927 0)
(-0.0186656 -0.00734862 0)
(-0.0172186 -0.0101487 0)
(-0.0151174 -0.0128777 0)
(-0.0123248 -0.0153737 0)
(-0.00888996 -0.0173308 0)
(-0.00474454 -0.0177945 0)
(-0.00122464 -0.0124936 0)
(-0.000847179 0.0115198 0)
(-0.00344832 0.0169297 0)
(-0.0067382 0.0171182 0)
(-0.00970957 0.0161566 0)
(-0.0124691 0.0147679 0)
(-0.0149567 0.0130712 0)
(-0.0171383 0.0111102 0)
(-0.018992 0.00891442 0)
(-0.0204988 0.00650451 0)
(-0.0216379 0.00389228 0)
(-0.0223819 0.00108302 0)
(-0.0226917 -0.00192042 0)
(-0.0225067 -0.00511384 0)
(-0.0217451 -0.00847449 0)
(-0.0203065 -0.0119491 0)
(-0.0180771 -0.0154299 0)
(-0.0149569 -0.0187167 0)
(-0.0109459 -0.0213963 0)
(-0.00593798 -0.0221922 0)
(-0.00156146 -0.0157177 0)
(-0.000968048 0.0137434 0)
(-0.00394042 0.020187 0)
(-0.00768864 0.0203808 0)
(-0.0110478 0.0192122 0)
(-0.0141504 0.0175515 0)
(-0.0169368 0.0155469 0)
(-0.01938 0.0132546 0)
(-0.0214688 0.010711 0)
(-0.0231953 0.00793765 0)
(-0.024549 0.00494106 0)
(-0.0255094 0.00171494 0)
(-0.0260407 -0.00175602 0)
(-0.0260736 -0.00549395 0)
(-0.025501 -0.00950511 0)
(-0.0241764 -0.0137651 0)
(-0.0219088 -0.0181808 0)
(-0.0184923 -0.0225258 0)
(-0.0138109 -0.0262569 0)
(-0.007689 -0.0276267 0)
(-0.00208882 -0.0198386 0)
(-0.00111956 0.0162962 0)
(-0.00454745 0.0239176 0)
(-0.00884637 0.0240917 0)
(-0.0126556 0.0226627 0)
(-0.0161436 0.0206759 0)
(-0.0192546 0.0183164 0)
(-0.0219746 0.0156572 0)
(-0.0243094 0.0127439 0)
(-0.0262692 0.00959901 0)
(-0.027861 0.00622234 0)
(-0.0290793 0.00259181 0)
(-0.0299009 -0.00133321 0)
(-0.030256 -0.00561651 0)
(-0.0300165 -0.0103135 0)
(-0.0289855 -0.015462 0)
(-0.0268702 -0.021025 0)
(-0.0232987 -0.0267894 0)
(-0.0179058 -0.0320884 0)
(-0.0103933 -0.0344656 0)
(-0.00298374 -0.0253324 0)
(-0.001316 0.0192601 0)
(-0.00530981 0.0282237 0)
(-0.0102709 0.0283311 0)
(-0.0145968 0.0265619 0)
(-0.018507 0.0241731 0)
(-0.0219567 0.0213956 0)
(-0.0249532 0.0183246 0)
(-0.0275277 0.0150178 0)
(-0.0297175 0.0115002 0)
(-0.0315568 0.00776364 0)
(-0.0330656 0.00376648 0)
(-0.0342495 -0.000567823 0)
(-0.0350545 -0.00534211 0)
(-0.0353472 -0.0107046 0)
(-0.0348926 -0.0168003 0)
(-0.0332816 -0.0237212 0)
(-0.0299166 -0.0313633 0)
(-0.0239404 -0.039018 0)
(-0.0148513 -0.0431954 0)
(-0.00465031 -0.0330703 0)
(-0.00158565 0.0227563 0)
(-0.00629583 0.0332418 0)
(-0.0120523 0.0331934 0)
(-0.0169636 0.0309628 0)
(-0.0213212 0.0280646 0)
(-0.0251046 0.0247834 0)
(-0.0283534 0.0212429 0)
(-0.0311347 0.0175159 0)
(-0.0335242 0.0136318 0)
(-0.0355956 0.00957561 0)
(-0.0374117 0.00528572 0)
(-0.0390104 0.000649312 0)
(-0.0403941 -0.0044921 0)
(-0.0414765 -0.010395 0)
(-0.0420099 -0.0173798 0)
(-0.0415009 -0.0257832 0)
(-0.0391054 -0.0358101 0)
(-0.0331227 -0.0469516 0)
(-0.0227367 -0.0543039 0)
(-0.00805187 -0.0448895 0)
(-0.00198574 0.0268715 0)
(-0.00763204 0.0390957 0)
(-0.0143363 0.0387673 0)
(-0.0198921 0.0359081 0)
(-0.0246983 0.0323531 0)
(-0.0287802 0.0284532 0)
(-0.0322219 0.0243684 0)
(-0.0351397 0.0201888 0)
(-0.0376585 0.0159502 0)
(-0.0399035 0.0116347 0)
(-0.0419925 0.00716785 0)
(-0.0440279 0.0024151 0)
(-0.0460997 -0.00284807 0)
(-0.0482371 -0.00900902 0)
(-0.0502931 -0.0165904 0)
(-0.051817 -0.0263342 0)
(-0.0518314 -0.0391058 0)
(-0.0473711 -0.0551759 0)
(-0.0374946 -0.0679474 0)
(-0.0155674 -0.0643822 0)
(-0.00255099 0.0324934 0)
(-0.00938852 0.0461652 0)
(-0.0172844 0.0451829 0)
(-0.0235589 0.0413762 0)
(-0.0287885 0.0369761 0)
(-0.0330913 0.0323308 0)
(-0.0366179 0.0276173 0)
(-0.0395511 0.0229451 0)
(-0.0420742 0.0183633 0)
(-0.0443709 0.0138567 0)
(-0.0466208 0.00934158 0)
(-0.049011 0.00464511 0)
(-0.0517964 -0.000509301 0)
(-0.0551904 -0.00652103 0)
(-0.0593102 -0.014061 0)
(-0.064115 -0.0244163 0)
(-0.0689076 -0.0393615 0)
(-0.0690138 -0.0614871 0)
(-0.0639237 -0.0828924 0)
(-0.0302694 -0.0981283 0)
(-0.00427142 0.0372823 0)
(-0.0130504 0.0547799 0)
(-0.0214843 0.0529077 0)
(-0.0282968 0.0480136 0)
(-0.0337538 0.0423602 0)
(-0.0381321 0.036563 0)
(-0.0415837 0.0309522 0)
(-0.044348 0.0256649 0)
(-0.0466748 0.0207363 0)
(-0.0488235 0.0161385 0)
(-0.0510694 0.0118162 0)
(-0.0537055 0.00766144 0)
(-0.0570433 0.00349993 0)
(-0.0614945 -0.00104226 0)
(-0.067777 -0.00686793 0)
(-0.0765749 -0.0158395 0)
(-0.0885771 -0.0310488 0)
(-0.0963177 -0.0617338 0)
(-0.101154 -0.0996532 0)
(-0.0461701 -0.160509 0)
(-0.00331899 0.0524774 0)
(-0.013655 0.0613336 0)
(-0.0265062 0.0581669 0)
(-0.0342163 0.0513181 0)
(-0.0401387 0.0449572 0)
(-0.0442688 0.0387696 0)
(-0.0470851 0.0329107 0)
(-0.0490932 0.0274488 0)
(-0.0506616 0.0224351 0)
(-0.0520763 0.0178777 0)
(-0.0535989 0.0137797 0)
(-0.0555233 0.010064 0)
(-0.0583351 0.00669601 0)
(-0.0628482 0.00334229 0)
(-0.070387 -0.000429125 0)
(-0.0821455 -0.00704386 0)
(-0.102872 -0.0201155 0)
(-0.114877 -0.0598523 0)
(-0.129011 -0.127683 0)
(-0.0364711 -0.258235 0)
(-0.0119816 0.0473088 0)
(-0.0308668 0.0851889 0)
(-0.033964 0.0768114 0)
(-0.0422887 0.0673671 0)
(-0.0453648 0.0568893 0)
(-0.0469278 0.0469479 0)
(-0.0471835 0.0382562 0)
(-0.0467856 0.030933 0)
(-0.0461288 0.0248785 0)
(-0.0455156 0.0199073 0)
(-0.0452924 0.0160075 0)
(-0.0456715 0.0130912 0)
(-0.0471993 0.0115218 0)
(-0.0499736 0.0115337 0)
(-0.0558143 0.0140019 0)
(-0.0620699 0.0151141 0)
(-0.07903 0.0113994 0)
(-0.0729322 -0.0445066 0)
(-0.0985357 -0.155455 0)
(0.0136067 -0.345794 0)
(-0.0718906 0.111751 0)
(-0.0555828 0.0692773 0)
(-0.0547003 0.0630564 0)
(-0.0374429 0.0525202 0)
(-0.022358 0.0423498 0)
(-0.00790555 0.0342354 0)
(0.00504409 0.0278589 0)
(0.0162193 0.0226487 0)
(0.0254895 0.0183911 0)
(0.0332408 0.0148661 0)
(0.0393019 0.0123612 0)
(0.0448167 0.0103048 0)
(0.0487146 0.00986162 0)
(0.0546755 0.00934739 0)
(0.056676 0.011177 0)
(0.0738024 0.00782709 0)
(0.0629057 -0.00439239 0)
(0.108599 -0.0645953 0)
(0.0418401 -0.21502 0)
(0.0924042 -0.378682 0)
(0.125283 0.14292 0)
(0.163723 0.0884454 0)
(0.244938 0.0643639 0)
(0.300227 0.0480483 0)
(0.341512 0.0360296 0)
(0.37379 0.0268203 0)
(0.399223 0.0199609 0)
(0.419471 0.0149189 0)
(0.434774 0.0113645 0)
(0.448139 0.00863887 0)
(0.456191 0.00680522 0)
(0.46807 0.00542394 0)
(0.468271 0.00393709 0)
(0.485542 0.00430905 0)
(0.473248 0.000893933 0)
(0.502713 0.00375571 0)
(0.466192 -0.00777058 0)
(0.489503 -0.0189076 0)
(0.360181 -0.0552686 0)
(0.259855 -0.141994 0)
)
;

boundaryField
{
    movingWall
    {
        type            fixedValue;
        value           uniform (1 0 0);
    }
    fixedWalls
    {
        type            noSlip;
    }
    frontAndBack
    {
        type            empty;
    }
}


// ************************************************************************* //
