/*--------------------------------*- C++ -*----------------------------------*\
  =========                 |
  \\      /  F ield         | OpenFOAM: The Open Source CFD Toolbox
   \\    /   O peration     | Website:  https://openfoam.org
    \\  /    A nd           | Version:  10
     \\/     M anipulation  |
\*---------------------------------------------------------------------------*/
FoamFile
{
    format      ascii;
    class       surfaceScalarField;
    location    "1.375";
    object      phi;
}
// * * * * * * * * * * * * * * * * * * * * * * * * * * * * * * * * * * * * * //

dimensions      [0 3 -1 0 0 0 0];

internalField   nonuniform List<scalar> 
22800
(
-5.51081e-06
5.54312e-06
-3.48503e-08
-1.25441e-05
6.96702e-06
6.63011e-08
-1.94201e-05
6.78836e-06
8.75881e-08
-2.58339e-05
6.31964e-06
9.41987e-08
-3.1614e-05
5.68999e-06
9.00915e-08
-3.6616e-05
4.92266e-06
7.93364e-08
-4.07162e-05
4.0361e-06
6.40755e-08
-4.38113e-05
3.04966e-06
4.54214e-08
-4.58189e-05
1.98354e-06
2.40669e-08
-4.66778e-05
8.58681e-07
2.87326e-10
-4.63504e-05
-3.02973e-07
-2.44494e-08
-4.48223e-05
-1.47766e-06
-5.04431e-08
-4.21071e-05
-2.63875e-06
-7.65002e-08
-3.82482e-05
-3.75722e-06
-1.01631e-07
-3.33227e-05
-4.801e-06
-1.24469e-07
-2.7444e-05
-5.73567e-06
-1.43052e-07
-2.07643e-05
-6.52556e-06
-1.54145e-07
-1.34831e-05
-7.12879e-06
-1.52453e-07
-5.95742e-06
-7.39315e-06
-1.32496e-07
-5.93661e-06
-2.08147e-08
-7.1794e-06
1.28706e-05
-1.48078e-07
-1.61216e-05
1.59522e-05
-4.29105e-08
-2.48492e-05
1.55305e-05
-1.46391e-08
-3.29814e-05
1.44505e-05
1.3401e-09
-4.02996e-05
1.29999e-05
8.30431e-09
-4.66214e-05
1.12346e-05
9.89726e-09
-5.17925e-05
9.19897e-06
8.21187e-09
-5.56854e-05
6.93847e-06
4.05111e-09
-5.81995e-05
4.49974e-06
-2.06392e-09
-5.92609e-05
1.93019e-06
-1.00745e-08
-5.88265e-05
-7.17493e-07
-1.98816e-08
-5.68779e-05
-3.39555e-06
-3.07519e-08
-5.34341e-05
-6.04012e-06
-4.24271e-08
-4.85498e-05
-8.58741e-06
-5.41384e-08
-4.23208e-05
-1.09653e-05
-6.47267e-08
-3.48883e-05
-1.30957e-05
-7.2354e-08
-2.64432e-05
-1.4897e-05
-7.37147e-08
-1.72367e-05
-1.6272e-05
-6.32921e-08
-7.71185e-06
-1.68817e-05
-3.63212e-08
-1.37304e-05
8.19186e-08
-7.62717e-06
2.06878e-05
-1.90029e-07
-1.71264e-05
2.5533e-05
-8.1598e-08
-2.63864e-05
2.48411e-05
-5.05339e-08
-3.50076e-05
2.31026e-05
-3.08504e-08
-4.27608e-05
2.07733e-05
-2.02513e-08
-4.94562e-05
1.79446e-05
-1.45721e-08
-5.49345e-05
1.46891e-05
-1.18217e-08
-5.90648e-05
1.10801e-05
-1.13161e-08
-6.17443e-05
7.19199e-06
-1.27738e-08
-6.28979e-05
3.0998e-06
-1.60121e-08
-6.24726e-05
-1.12192e-06
-2.09253e-08
-6.04511e-05
-5.38977e-06
-2.72768e-08
-5.6846e-05
-9.61051e-06
-3.47268e-08
-5.17065e-05
-1.36844e-05
-4.25586e-08
-4.51252e-05
-1.74969e-05
-4.96641e-08
-3.7244e-05
-2.09227e-05
-5.41943e-08
-2.82602e-05
-2.38281e-05
-5.27026e-08
-1.84392e-05
-2.60536e-05
-3.9343e-08
-8.25419e-06
-2.70574e-05
-9.29496e-09
-2.20994e-05
1.14831e-07
-8.14123e-06
2.90538e-05
-2.24754e-07
-1.8287e-05
3.57894e-05
-1.10713e-07
-2.81679e-05
3.47989e-05
-7.69034e-08
-3.73579e-05
3.23471e-05
-5.44555e-08
-4.56156e-05
2.90722e-05
-4.12451e-08
-5.27445e-05
2.51064e-05
-3.29059e-08
-5.85819e-05
2.05539e-05
-2.73899e-08
-6.29958e-05
1.5518e-05
-2.40057e-08
-6.58818e-05
1.01005e-05
-2.25465e-08
-6.71615e-05
4.40245e-06
-2.29603e-08
-6.67797e-05
-1.47848e-06
-2.52289e-08
-6.47068e-05
-7.43362e-06
-2.90512e-08
-6.09465e-05
-1.33365e-05
-3.42766e-08
-5.55367e-05
-1.9054e-05
-4.02244e-08
-4.85598e-05
-2.4428e-05
-4.57669e-08
-4.01529e-05
-2.92806e-05
-4.89468e-08
-3.05177e-05
-3.34174e-05
-4.6025e-08
-1.99377e-05
-3.6603e-05
-3.05856e-08
-8.93067e-06
-3.80667e-05
2.31246e-09
-3.1166e-05
1.35931e-07
-8.85768e-06
3.81725e-05
-2.61079e-07
-1.98977e-05
4.69678e-05
-1.38304e-07
-3.06347e-05
4.56371e-05
-1.01215e-07
-4.06048e-05
4.23931e-05
-7.58954e-08
-4.95501e-05
3.80778e-05
-6.03242e-08
-5.72663e-05
3.28724e-05
-4.98149e-08
-6.35888e-05
2.69185e-05
-4.22046e-08
-6.83859e-05
2.03519e-05
-3.6796e-08
-7.15539e-05
1.3302e-05
-3.34156e-08
-7.30124e-05
5.893e-06
-3.20691e-08
-7.27006e-05
-1.75754e-06
-3.28036e-08
-7.05745e-05
-9.5244e-06
-3.52676e-08
-6.66226e-05
-1.72489e-05
-3.94789e-08
-6.08632e-05
-2.47686e-05
-4.47847e-08
-5.33607e-05
-3.18805e-05
-4.99947e-08
-4.42403e-05
-3.8348e-05
-5.29586e-08
-3.37053e-05
-4.39029e-05
-4.94733e-08
-2.20629e-05
-4.82132e-05
-3.22372e-08
-9.8955e-06
-5.02383e-05
4.1881e-09
-4.12137e-05
1.52225e-07
-9.80935e-06
4.82865e-05
-3.04595e-07
-2.20312e-05
5.93594e-05
-1.6981e-07
-3.38923e-05
5.76268e-05
-1.28568e-07
-4.48776e-05
5.34782e-05
-9.97481e-08
-5.47093e-05
4.79909e-05
-8.1467e-08
-6.3176e-05
4.14078e-05
-6.86216e-08
-7.01145e-05
3.39159e-05
-5.88978e-08
-7.53983e-05
2.56873e-05
-5.15783e-08
-7.89283e-05
1.68785e-05
-4.65167e-08
-8.06244e-05
7.63286e-06
-4.3772e-08
-8.04201e-05
-1.91836e-06
-4.34709e-08
-7.82521e-05
-1.16472e-05
-4.51509e-08
-7.40856e-05
-2.13664e-05
-4.90542e-08
-6.79087e-05
-3.08909e-05
-5.45773e-08
-5.97538e-05
-3.9975e-05
-6.04384e-08
-4.97216e-05
-4.8316e-05
-6.42105e-08
-3.8009e-05
-5.55544e-05
-6.10223e-08
-2.4949e-05
-6.1231e-05
-4.22878e-08
-1.12129e-05
-6.39737e-05
-6.74935e-10
-5.25931e-05
1.66513e-07
-1.10328e-05
5.96797e-05
-3.60344e-07
-2.4766e-05
7.33026e-05
-2.10015e-07
-3.80506e-05
7.10748e-05
-1.63343e-07
-5.03058e-05
6.58632e-05
-1.29817e-07
-6.12309e-05
5.90238e-05
-1.07855e-07
-7.06117e-05
5.08805e-05
-9.1869e-08
-7.82935e-05
4.16771e-05
-7.93885e-08
-8.4164e-05
3.16275e-05
-6.96831e-08
-8.81362e-05
2.09134e-05
-6.2642e-08
-9.01356e-05
9.69069e-06
-5.83942e-08
-9.00923e-05
-1.90455e-06
-5.71726e-08
-8.7917e-05
-1.37642e-05
-5.82708e-08
-8.35417e-05
-2.56794e-05
-6.23198e-08
-7.69079e-05
-3.74559e-05
-6.88159e-08
-6.79949e-05
-4.88116e-05
-7.63855e-08
-5.68559e-05
-5.93727e-05
-8.22433e-08
-4.36634e-05
-6.86663e-05
-8.0587e-08
-2.87723e-05
-7.60612e-05
-6.09324e-08
-1.29698e-05
-7.97616e-05
-1.46324e-08
-6.57425e-05
1.79541e-07
-1.25813e-05
7.26948e-05
-4.3387e-07
-2.82133e-05
8.91984e-05
-2.63889e-07
-4.32621e-05
8.63335e-05
-2.09892e-07
-5.70632e-05
7.9834e-05
-1.69664e-07
-6.92936e-05
7.13964e-05
-1.42258e-07
-7.97451e-05
6.14536e-05
-1.21585e-07
-8.82858e-05
5.03229e-05
-1.05049e-07
-9.48318e-05
3.82655e-05
-9.19255e-08
-9.9322e-05
2.54856e-05
-8.21538e-08
-0.000101696
1.21411e-05
-7.59697e-08
-0.000101888
-1.63971e-06
-7.3778e-08
-9.97733e-05
-1.58041e-05
-7.42433e-08
-9.52397e-05
-3.01342e-05
-7.88434e-08
-8.81586e-05
-4.44497e-05
-8.71954e-08
-7.84239e-05
-5.84484e-05
-9.79281e-08
-6.60028e-05
-7.1686e-05
-1.0784e-07
-5.10069e-05
-8.35523e-05
-1.09889e-07
-3.37951e-05
-9.31821e-05
-9.08634e-08
-1.53008e-05
-9.82164e-05
-3.94279e-08
-8.12329e-05
1.8965e-07
-1.45338e-05
8.77615e-05
-5.32898e-07
-3.2534e-05
0.000107537
-3.38168e-07
-4.97411e-05
0.000103814
-2.7384e-07
-6.53866e-05
9.57031e-05
-2.23578e-07
-7.91309e-05
8.53284e-05
-1.87702e-07
-9.07903e-05
7.32727e-05
-1.59695e-07
-0.000100279
5.99486e-05
-1.36904e-07
-0.000107566
4.5671e-05
-1.18625e-07
-0.000112636
3.06604e-05
-1.04841e-07
-0.000115459
1.50602e-05
-9.59691e-08
-0.000115983
-1.02314e-06
-9.29005e-08
-0.000114044
-1.76507e-05
-9.21977e-08
-0.00010947
-3.46099e-05
-9.77697e-08
-0.000102032
-5.17789e-05
-1.09178e-07
-9.14899e-05
-6.88654e-05
-1.25209e-07
-7.76622e-05
-8.53714e-05
-1.42356e-07
-6.05328e-05
-0.00010053
-1.5203e-07
-4.04157e-05
-0.000113162
-1.37141e-07
-1.84196e-05
-0.000120131
-8.15597e-08
-9.98449e-05
1.92336e-07
-1.70125e-05
0.000105443
-6.69449e-07
-3.79663e-05
0.000128934
-4.43176e-07
-5.77941e-05
0.000124006
-3.63323e-07
-7.56011e-05
0.000113807
-2.97277e-07
-9.10491e-05
0.000101024
-2.47733e-07
-0.000104012
8.64435e-05
-2.07972e-07
-0.000114489
7.06006e-05
-1.75381e-07
-0.000122537
5.38687e-05
-1.49224e-07
-0.00012822
3.64723e-05
-1.29403e-07
-0.000131557
1.85137e-05
-1.16583e-07
-0.000132542
7.65402e-08
-1.14686e-07
-0.000130951
-1.91318e-05
-1.09947e-07
-0.000126554
-3.88892e-05
-1.17081e-07
-0.000118977
-5.92229e-05
-1.3326e-07
-0.000107778
-7.99068e-05
-1.57658e-07
-9.25302e-05
-0.000100432
-1.87088e-07
-7.29698e-05
-0.000119879
-2.11356e-07
-4.92538e-05
-0.00013667
-2.08085e-07
-2.26803e-05
-0.000146552
-1.51955e-07
-0.000122703
1.77501e-07
-2.02125e-05
0.000126519
-8.6344e-07
-4.48715e-05
0.000154189
-5.95691e-07
-6.78675e-05
0.000147492
-4.90592e-07
-8.81587e-05
0.000134497
-3.985e-07
-0.000105451
0.000118643
-3.26263e-07
-0.000119735
0.000100995
-2.6744e-07
-0.000131153
8.22387e-05
-2.19492e-07
-0.000139909
6.28055e-05
-1.81405e-07
-0.000146187
4.29026e-05
-1.52426e-07
-0.000150102
2.25604e-05
-1.31336e-07
-0.000151652
1.73926e-06
-1.12741e-07
-0.000150676
-1.99871e-05
-1.20552e-07
-0.000146812
-4.26211e-05
-1.32403e-07
-0.00013951
-6.63692e-05
-1.55709e-07
-0.000128038
-9.11863e-05
-1.92703e-07
-0.000111576
-0.000116652
-2.4196e-07
-8.94104e-05
-0.000141751
-2.92792e-07
-6.12999e-05
-0.000164464
-3.16629e-07
-2.87004e-05
-0.000178883
-2.68916e-07
-0.000151525
1.22051e-07
-2.44619e-05
0.000152131
-1.14961e-06
-5.38135e-05
0.000184364
-8.23994e-07
-8.06243e-05
0.000174977
-6.74233e-07
-0.000103696
0.000158106
-5.3725e-07
-0.000122872
0.000138245
-4.2649e-07
-0.000138357
0.000116816
-3.36633e-07
-0.00015053
9.46769e-05
-2.64949e-07
-0.000159813
7.22975e-05
-2.09568e-07
-0.000166575
4.9833e-05
-1.6857e-07
-0.000171065
2.71902e-05
-1.39908e-07
-0.000173355
4.15167e-06
-1.21717e-07
-0.000173322
-1.98971e-05
-1.23085e-07
-0.000170516
-4.52907e-05
-1.36996e-07
-0.00016418
-7.25365e-05
-1.68532e-07
-0.000153198
-0.000101946
-2.22656e-07
-0.000136142
-0.000133405
-3.0227e-07
-0.000111516
-0.000165979
-3.98944e-07
-7.81862e-05
-0.000197312
-4.81109e-07
-3.76237e-05
-0.000218984
-4.61214e-07
-0.000189124
-2.47501e-08
-3.03409e-05
0.000184064
-1.59193e-06
-6.56991e-05
0.0002209
-1.1772e-06
-9.70691e-05
0.000207289
-9.41759e-07
-0.000123119
0.00018488
-7.2446e-07
-0.000144024
0.000159698
-5.47253e-07
-0.000160363
0.000133562
-4.07303e-07
-0.00017288
0.000107494
-3.00155e-07
-0.00018232
8.19587e-05
-2.211e-07
-0.000189314
5.69924e-05
-1.65035e-07
-0.000194304
3.23074e-05
-1.27698e-07
-0.000197482
7.43647e-06
-1.06973e-07
-0.000198809
-1.84689e-05
-1.01202e-07
-0.000197793
-4.61916e-05
-1.14884e-07
-0.000193486
-7.66896e-05
-1.53802e-07
-0.000184327
-0.000110877
-2.27957e-07
-0.000168052
-0.00014933
-3.49514e-07
-0.000141838
-0.000191673
-5.20002e-07
-0.000102687
-0.000235742
-7.21896e-07
-5.17374e-05
-0.000269163
-7.70275e-07
-0.000240483
-3.78959e-07
-3.89541e-05
0.000225319
-2.3013e-06
-8.20453e-05
0.000265724
-1.7336e-06
-0.00011875
0.000245322
-1.32827e-06
-0.000147723
0.000214818
-9.64823e-07
-0.00016985
0.000182498
-6.72659e-07
-0.000186318
0.000150485
-4.54424e-07
-0.000198435
0.000119909
-2.97992e-07
-0.000207393
9.11071e-05
-1.90037e-07
-0.000214162
6.38791e-05
-1.17477e-07
-0.000219443
3.76575e-05
-6.9751e-08
-0.000223603
1.16376e-05
-4.10547e-08
-0.000226753
-1.5292e-05
-2.62806e-08
-0.00022847
-4.44417e-05
-3.351e-08
-0.000227711
-7.73765e-05
-7.15956e-08
-0.000222518
-0.00011591
-1.5982e-07
-0.000209629
-0.000161891
-3.2864e-07
-0.000184308
-0.00021639
-6.04447e-07
-0.000139652
-0.000279348
-1.04887e-06
-7.62075e-05
-0.000331349
-1.25956e-06
-0.0003155
-1.19025e-06
-5.21611e-05
0.000281131
-3.65114e-06
-0.000105222
0.000321472
-2.68677e-06
-0.000148001
0.000289987
-1.88612e-06
-0.000179342
0.000247396
-1.23652e-06
-0.000201552
0.000205452
-7.44632e-07
-0.000216839
0.000166184
-4.13082e-07
-0.000227341
0.00013061
-1.98937e-07
-0.000234822
9.8653e-05
-6.43736e-08
-0.000240643
6.96814e-05
1.85745e-08
-0.000245793
4.27412e-05
6.57448e-08
-0.000250903
1.665e-05
9.85008e-08
-0.000256296
-1.0025e-05
1.25815e-07
-0.000261817
-3.90608e-05
1.39475e-07
-0.000266583
-7.27434e-05
1.33559e-07
-0.000268551
-0.000114023
8.04675e-08
-0.000263507
-0.000166844
-9.07403e-08
-0.0002446
-0.000234821
-4.75359e-07
-0.000197436
-0.000325143
-1.37042e-06
-0.000120246
-0.000406649
-1.8892e-06
-0.000432708
-3.03826e-06
-7.79987e-05
0.000364431
-5.30072e-06
-0.000141002
0.000388502
-4.02614e-06
-0.000189019
0.000340501
-2.49613e-06
-0.000220596
0.000280353
-1.38031e-06
-0.000240561
0.000226
-5.83117e-07
-0.000252465
0.000178213
-1.24967e-07
-0.000259499
0.000137526
1.18676e-07
-0.000264059
0.00010297
2.42883e-07
-0.000267886
7.32013e-05
3.06702e-07
-0.000272241
4.67514e-05
3.45041e-07
-0.000278019
2.20443e-05
3.83385e-07
-0.000285849
-2.64102e-06
4.46039e-07
-0.000296126
-2.92907e-05
5.07682e-07
-0.000308546
-6.09271e-05
6.03392e-07
-0.000321864
-0.000101407
7.02005e-07
-0.000331146
-0.000158235
6.72123e-07
-0.000329499
-0.000236935
4.66898e-07
-0.000287813
-0.000365802
-1.02666e-06
-0.000204049
-0.000488624
-1.78925e-06
-0.000629984
-6.77228e-06
-0.000103386
0.000479152
-1.13359e-05
-0.000186669
0.000478483
-6.69814e-06
-0.000243736
0.000400858
-3.29011e-06
-0.000273699
0.000311317
-1.00108e-06
-0.000287592
0.000239631
2.62589e-07
-0.000292541
0.000182387
7.74926e-07
-0.000293322
0.000137362
9.44563e-07
-0.000292917
0.000101603
9.61335e-07
-0.000293267
7.26207e-05
9.30992e-07
-0.000295745
4.83202e-05
9.09431e-07
-0.00030138
2.67366e-05
9.41925e-07
-0.000311377
6.29207e-06
1.06472e-06
-0.000326533
-1.54064e-05
1.2717e-06
-0.000347717
-4.14227e-05
1.67957e-06
-0.000376764
-7.47279e-05
2.36803e-06
-0.000407396
-0.000130629
3.02589e-06
-0.000443017
-0.000205518
4.20424e-06
-0.000425536
-0.000385085
1.80283e-06
-0.000351855
-0.000563761
1.45588e-06
-0.000968806
-1.30334e-05
-0.000237968
0.000733054
-1.59338e-05
-0.000296774
0.000548459
-1.11699e-05
-0.000326694
0.000433767
-2.98957e-06
-0.000335728
0.000319818
5.32529e-07
-0.000330226
0.000231676
2.45287e-06
-0.000319452
0.0001687
2.91288e-06
-0.000308107
0.000123221
2.79606e-06
-0.000298625
8.9648e-05
2.47295e-06
-0.000292476
6.43109e-05
2.16127e-06
-0.000290749
4.464e-05
1.95293e-06
-0.000294515
2.86151e-05
1.88793e-06
-0.00030487
1.46321e-05
2.01427e-06
-0.000323639
8.13237e-07
2.54987e-06
-0.000354503
-1.39716e-05
3.41281e-06
-0.000403119
-3.11073e-05
4.9951e-06
-0.000463465
-7.72082e-05
6.92574e-06
-0.000541685
-0.000138917
1.16183e-05
-0.000566364
-0.000370426
1.00208e-05
-0.000480954
-0.000663219
1.40473e-05
-0.00143425
-1.55107e-05
-0.000386903
0.00115125
-3.12892e-05
-0.0003514
0.000514972
-2.01627e-06
-0.000286044
0.000361417
6.99385e-06
-0.000213463
0.000235105
1.21315e-05
-0.000145965
0.000152056
1.21218e-05
-9.04762e-05
0.000103286
9.9256e-06
-4.79601e-05
7.29879e-05
7.71696e-06
-1.67508e-05
5.2484e-05
5.95469e-06
4.91103e-06
3.79212e-05
4.7278e-06
1.84441e-05
2.71302e-05
3.97674e-06
2.45744e-05
1.88274e-05
3.65741e-06
2.34758e-05
1.18555e-05
3.87519e-06
1.41394e-05
5.42006e-06
4.72964e-06
-4.07918e-06
-2.45044e-06
6.69741e-06
-3.03036e-05
-1.76711e-05
1.27882e-05
-7.2842e-05
-4.88134e-05
1.41436e-05
-0.000118985
-0.000129741
3.69675e-05
-0.000195918
-0.000324457
3.09634e-05
-0.000190626
-0.000723492
5.4981e-05
-0.00159185
-3.30232e-05
0.00120107
-4.98198e-05
0.00175109
-3.50537e-05
0.00212687
-1.43606e-05
0.00236135
6.21934e-07
0.00250684
6.56913e-06
0.00260239
7.73905e-06
0.00266809
7.28293e-06
0.00271437
6.20431e-06
0.0027472
5.09846e-06
0.00277007
4.25679e-06
0.00278507
3.82348e-06
0.00279322
3.70844e-06
0.00279407
4.57066e-06
0.00278637
5.25102e-06
0.00275856
1.01382e-05
0.00269835
1.13992e-05
0.00254359
2.50121e-05
0.00219413
2.50019e-05
0.00148081
-1.01698e-05
-0.00011104
-6.95342e-06
6.96638e-06
-4.78087e-08
-1.5796e-05
8.89285e-06
1.6034e-08
-2.4416e-05
8.67269e-06
3.48986e-08
-3.24316e-05
8.06553e-06
4.42829e-08
-3.96376e-05
7.2506e-06
4.55058e-08
-4.58591e-05
6.25974e-06
4.10915e-08
-5.09451e-05
5.11744e-06
3.25705e-08
-5.47697e-05
3.84921e-06
2.08837e-08
-5.72338e-05
2.48145e-06
6.71015e-09
-5.82648e-05
1.04152e-06
-1.03121e-08
-5.78189e-05
-4.42285e-07
-2.79851e-08
-5.58829e-05
-1.93976e-06
-4.66696e-08
-5.24767e-05
-3.41721e-06
-6.55741e-08
-4.76566e-05
-4.83805e-06
-8.36252e-08
-4.15195e-05
-6.1621e-06
-9.95113e-08
-3.42046e-05
-7.34644e-06
-1.1147e-07
-2.58953e-05
-8.34653e-06
-1.16943e-07
-1.68269e-05
-9.10846e-06
-1.12355e-07
-7.44168e-06
-9.42285e-06
-9.48897e-08
-7.43908e-06
-2.34133e-08
-9.21312e-06
1.61548e-05
-1.23404e-07
-2.06232e-05
2.03209e-05
-6.08458e-08
-3.173e-05
1.98005e-05
-3.56168e-08
-4.20492e-05
1.84045e-05
-1.84434e-08
-5.13128e-05
1.65316e-05
-9.0376e-09
-5.92961e-05
1.42578e-05
-4.91033e-09
-6.58073e-05
1.16414e-05
-4.54818e-09
-7.06891e-05
8.74222e-06
-7.11683e-09
-7.38188e-05
5.62107e-06
-1.20517e-08
-7.51076e-05
2.33922e-06
-1.89762e-08
-7.45058e-05
-1.0366e-06
-2.73209e-08
-7.19963e-05
-4.44318e-06
-3.68608e-08
-6.7607e-05
-7.8018e-06
-4.70753e-08
-6.14105e-05
-1.10317e-05
-5.7011e-08
-5.35293e-05
-1.40426e-05
-6.54134e-08
-4.41402e-05
-1.67374e-05
-7.05004e-08
-3.34768e-05
-1.90141e-05
-6.95642e-08
-2.18417e-05
-2.0748e-05
-5.88058e-08
-9.7905e-06
-2.14745e-05
-3.58278e-08
-1.71884e-05
4.07352e-08
-9.8124e-06
2.59371e-05
-1.59932e-07
-2.19593e-05
3.24822e-05
-9.59625e-08
-3.37689e-05
3.16279e-05
-6.83575e-08
-4.47304e-05
2.93838e-05
-4.87035e-08
-5.45631e-05
2.63801e-05
-3.59886e-08
-6.30326e-05
2.27408e-05
-2.81015e-08
-6.99408e-05
1.85614e-05
-2.35856e-08
-7.51264e-05
1.39383e-05
-2.17458e-08
-7.84638e-05
8.96784e-06
-2.22143e-08
-7.98631e-05
3.74723e-06
-2.47251e-08
-7.92638e-05
-1.62783e-06
-2.89451e-08
-7.66497e-05
-7.05e-06
-3.46157e-08
-7.20415e-05
-1.24035e-05
-4.12031e-08
-6.55059e-05
-1.7562e-05
-4.78383e-08
-5.71623e-05
-2.23827e-05
-5.32924e-08
-4.71886e-05
-2.67095e-05
-5.57509e-08
-3.5827e-05
-3.03761e-05
-5.23791e-08
-2.33973e-05
-3.31779e-05
-3.91404e-08
-1.04938e-05
-3.43736e-05
-1.37703e-08
-2.7633e-05
6.56232e-08
-1.04835e-05
3.639e-05
-1.94186e-07
-2.34661e-05
4.54823e-05
-1.28137e-07
-3.60751e-05
4.42575e-05
-9.75788e-08
-4.77653e-05
4.10942e-05
-7.46271e-08
-5.82413e-05
3.68737e-05
-5.89421e-08
-6.72601e-05
3.17746e-05
-4.79284e-08
-7.46203e-05
2.59343e-05
-4.01958e-08
-8.01591e-05
1.94882e-05
-3.51104e-08
-8.37498e-05
1.25684e-05
-3.23684e-08
-8.52993e-05
5.30554e-06
-3.17814e-08
-8.47441e-05
-2.17502e-06
-3.32286e-08
-8.20543e-05
-9.73254e-06
-3.63466e-08
-7.724e-05
-1.72113e-05
-4.0683e-08
-7.03542e-05
-2.44426e-05
-4.54231e-08
-6.15044e-05
-3.1229e-05
-4.93081e-08
-5.08632e-05
-3.73493e-05
-5.04034e-08
-3.86777e-05
-4.25619e-05
-4.56146e-08
-2.52896e-05
-4.65661e-05
-3.04801e-08
-1.13491e-05
-4.83094e-05
-2.44717e-09
-3.89281e-05
8.20081e-08
-1.14161e-05
4.77769e-05
-2.31743e-07
-2.55519e-05
5.96416e-05
-1.61865e-07
-3.92602e-05
5.79924e-05
-1.27773e-07
-5.19472e-05
5.38065e-05
-1.01204e-07
-6.32971e-05
4.82454e-05
-8.21418e-08
-7.3058e-05
4.15537e-05
-6.7929e-08
-8.10263e-05
3.39176e-05
-5.71365e-08
-8.7041e-05
2.55152e-05
-4.91617e-08
-9.09767e-05
1.65145e-05
-4.37612e-08
-9.27386e-05
7.07618e-06
-4.08238e-08
-9.22567e-05
-2.64941e-06
-4.02388e-08
-8.94851e-05
-1.24978e-05
-4.16545e-08
-8.44153e-05
-2.22759e-05
-4.47309e-08
-7.7077e-05
-3.17769e-05
-4.86515e-08
-6.7556e-05
-4.07479e-05
-5.20745e-08
-5.60107e-05
-4.88947e-05
-5.28524e-08
-4.26904e-05
-5.58842e-05
-4.74663e-08
-2.79645e-05
-6.12935e-05
-3.07655e-08
-1.25642e-05
-6.37057e-05
1.94278e-10
-5.14333e-05
9.31733e-08
-1.2655e-05
6.04045e-05
-2.77258e-07
-2.83144e-05
7.53329e-05
-2.01781e-07
-4.34658e-05
7.31784e-05
-1.63073e-07
-5.74492e-05
6.78221e-05
-1.31925e-07
-6.99248e-05
6.07482e-05
-1.08707e-07
-8.06326e-05
5.22836e-05
-9.06752e-08
-8.93719e-05
4.26744e-05
-7.63844e-08
-9.59892e-05
3.21461e-05
-6.52663e-08
-0.000100366
2.09022e-05
-5.71279e-08
-0.00010241
9.12784e-06
-5.19154e-08
-0.000102043
-3.00978e-06
-4.95851e-08
-9.91987e-05
-1.53377e-05
-4.97661e-08
-9.38394e-05
-2.7632e-05
-5.22408e-08
-8.59586e-05
-3.96561e-05
-5.61958e-08
-7.56035e-05
-5.11033e-05
-6.01715e-08
-6.29031e-05
-6.15976e-05
-6.1714e-08
-4.80987e-05
-7.06929e-05
-5.66799e-08
-3.15903e-05
-7.78052e-05
-3.88749e-08
-1.42193e-05
-8.10727e-05
-4.71649e-09
-6.55866e-05
1.00534e-07
-1.42488e-05
7.46286e-05
-3.35676e-07
-3.18574e-05
9.29843e-05
-2.52755e-07
-4.88366e-05
9.0202e-05
-2.07795e-07
-6.44412e-05
8.34672e-05
-1.70337e-07
-7.83043e-05
7.46448e-05
-1.41396e-07
-9.01636e-05
6.41692e-05
-1.18179e-07
-9.98312e-05
5.23618e-05
-9.92595e-08
-0.000107173
3.9502e-05
-8.41232e-08
-0.000112087
2.58265e-05
-7.26369e-08
-0.000114489
1.15365e-05
-6.48094e-08
-0.000114299
-3.19686e-06
-6.06696e-08
-0.000111418
-1.82167e-05
-5.97825e-08
-0.00010577
-3.32802e-05
-6.2128e-08
-9.72912e-05
-4.81369e-05
-6.69375e-08
-8.59643e-05
-6.2434e-05
-7.26311e-08
-7.18609e-05
-7.5707e-05
-7.63654e-08
-5.51922e-05
-8.73689e-05
-7.31304e-08
-3.63837e-05
-9.66195e-05
-5.52098e-08
-1.64216e-05
-0.000101031
-1.79192e-08
-8.19326e-05
1.03925e-07
-1.62682e-05
9.08759e-05
-4.12975e-07
-3.63274e-05
0.0001131
-3.20496e-07
-5.55726e-05
0.000109504
-2.66778e-07
-7.31504e-05
0.000101096
-2.20208e-07
-8.86682e-05
9.02032e-05
-1.82916e-07
-0.000101874
7.74057e-05
-1.52177e-07
-0.000112611
6.31203e-05
-1.26659e-07
-0.000120783
4.76882e-05
-1.05938e-07
-0.000126324
3.1375e-05
-8.99428e-08
-0.000129169
1.43839e-05
-7.87429e-08
-0.000129238
-3.12826e-06
-7.2448e-08
-0.0001264
-2.10588e-05
-7.04162e-08
-0.000120519
-3.91672e-05
-7.30257e-08
-0.000111446
-5.72171e-05
-7.96408e-08
-9.90607e-05
-7.48288e-05
-8.86262e-08
-8.33291e-05
-9.14497e-05
-9.67111e-08
-6.43888e-05
-0.000106321
-9.77387e-08
-4.26677e-05
-0.00011835
-8.17556e-08
-1.93359e-05
-0.000124361
-4.19902e-08
-0.00010118
1.01236e-07
-1.88179e-05
0.000109679
-5.17542e-07
-4.19361e-05
0.000136293
-4.12813e-07
-6.39543e-05
0.000131595
-3.4632e-07
-8.38857e-05
0.00012109
-2.8608e-07
-0.00010132
0.000107686
-2.36146e-07
-0.000116041
9.2161e-05
-1.94112e-07
-0.000127954
7.50547e-05
-1.58879e-07
-0.000137032
5.67778e-05
-1.30132e-07
-0.00014327
3.76159e-05
-1.07815e-07
-0.000146643
1.77531e-05
-9.20293e-08
-0.000147087
-2.69394e-06
-8.29901e-08
-0.000144427
-2.37319e-05
-7.94357e-08
-0.000138451
-4.51578e-05
-8.26486e-08
-0.000128888
-6.67979e-05
-9.22281e-08
-0.000115451
-8.82836e-05
-1.06706e-07
-9.79279e-05
-0.000108993
-1.22492e-07
-7.62982e-05
-0.000127971
-1.32038e-07
-5.09334e-05
-0.000143729
-1.22174e-07
-2.32244e-05
-0.000152069
-8.23046e-08
-0.0001243
8.78427e-08
-2.20586e-05
0.00013173
-6.62083e-07
-4.89951e-05
0.000163328
-5.41233e-07
-7.43815e-05
0.000157073
-4.5518e-07
-9.70694e-05
0.000143854
-3.73687e-07
-0.000116657
0.00012733
-3.04103e-07
-0.000133006
0.000108547
-2.44814e-07
-0.000146136
8.82041e-05
-1.95134e-07
-0.000156138
6.67851e-05
-1.54785e-07
-0.000163107
4.4579e-05
-1.23536e-07
-0.000167087
2.17181e-05
-1.01336e-07
-0.000168052
-1.75499e-06
-8.87329e-08
-0.000165781
-2.60297e-05
-8.28428e-08
-0.000159973
-5.09963e-05
-8.69462e-08
-0.000150178
-7.66249e-05
-1.00815e-07
-0.000135866
-0.000102629
-1.23705e-07
-0.000116522
-0.000128372
-1.52254e-07
-9.18231e-05
-0.000152704
-1.77537e-07
-6.1946e-05
-0.000173633
-1.82003e-07
-2.85224e-05
-0.000185497
-1.47586e-07
-0.0001527
5.48098e-08
-2.62448e-05
0.000157978
-8.66779e-07
-5.79745e-05
0.000195185
-7.23493e-07
-8.74328e-05
0.000186646
-6.05828e-07
-0.000113285
0.000169798
-4.90181e-07
-0.000135196
0.000149304
-3.89435e-07
-0.000153185
0.000126572
-3.03599e-07
-0.000167462
0.000102494
-2.32511e-07
-0.000178308
7.76248e-05
-1.75624e-07
-0.000185975
5.22256e-05
-1.31949e-07
-0.000190618
2.63302e-05
-1.0037e-07
-0.000192277
-1.28583e-07
-8.04793e-08
-0.000190705
-2.76489e-05
-7.34094e-08
-0.000185495
-5.62592e-05
-7.88724e-08
-0.000175973
-8.62044e-05
-9.81972e-08
-0.000161247
-0.000117415
-1.32867e-07
-0.000140322
-0.000149358
-1.81307e-07
-0.000112321
-0.000180763
-2.34126e-07
-7.69331e-05
-0.000209069
-2.68717e-07
-3.59927e-05
-0.000226455
-2.51602e-07
-0.000188554
-1.63009e-08
-3.17986e-05
0.000189792
-1.16489e-06
-6.96022e-05
0.000233152
-9.87542e-07
-0.000103962
0.000221148
-8.15908e-07
-0.00013335
0.000199292
-6.43731e-07
-0.00015762
0.000173641
-4.92861e-07
-0.000177081
0.000146063
-3.66203e-07
-0.000192255
0.000117668
-2.63897e-07
-0.000203708
8.90524e-05
-1.84287e-07
-0.00021193
6.04031e-05
-1.24546e-07
-0.000217246
3.15876e-05
-8.1339e-08
-0.000219778
2.33312e-06
-5.08036e-08
-0.000219332
-2.81755e-05
-4.26402e-08
-0.000215377
-6.03036e-05
-4.77777e-08
-0.000206979
-9.46992e-05
-7.18135e-08
-0.000192771
-0.000131725
-1.20588e-07
-0.000171012
-0.000171221
-1.97411e-07
-0.000139868
-0.000212011
-2.95863e-07
-9.79301e-05
-0.000251097
-3.90382e-07
-4.70616e-05
-0.00027737
-4.14359e-07
-0.00023546
-1.80523e-07
-3.94539e-05
0.000229267
-1.61326e-06
-8.50348e-05
0.000278934
-1.37813e-06
-0.000125248
0.000261529
-1.10941e-06
-0.000158411
0.000232573
-8.41353e-07
-0.000184825
0.000200117
-6.09174e-07
-0.000205296
0.000166547
-4.20416e-07
-0.000220832
0.000133177
-2.74096e-07
-0.000232418
0.000100583
-1.6514e-07
-0.000240877
6.87845e-05
-8.65312e-08
-0.000246781
3.73951e-05
-3.20214e-08
-0.000250369
5.81142e-06
3.166e-09
-0.000251586
-2.7086e-05
2.60938e-08
-0.00024981
-6.22212e-05
2.66986e-08
-0.000243859
-0.000100801
-2.96698e-09
-0.000231814
-0.000143937
-6.15494e-08
-0.000210902
-0.00019231
-1.72453e-07
-0.000177672
-0.000245421
-3.39987e-07
-0.000128426
-0.000300516
-5.49966e-07
-6.45922e-05
-0.000341312
-6.62771e-07
-0.000299926
-5.04887e-07
-5.05819e-05
0.000279853
-2.30549e-06
-0.000106183
0.000334764
-1.96279e-06
-0.000153241
0.000308772
-1.51435e-06
-0.000190094
0.000269543
-1.08173e-06
-0.000217978
0.000228046
-7.17822e-07
-0.000238517
0.000187068
-4.3739e-07
-0.000253458
0.000148053
-2.33241e-07
-0.000264368
0.000111394
-9.10718e-08
-0.000272496
7.6791e-05
4.15405e-09
-0.000278737
4.34863e-05
7.97425e-08
-0.000283538
1.04409e-05
1.31176e-07
-0.00028702
-2.37978e-05
1.6758e-07
-0.000288622
-6.08377e-05
1.8491e-07
-0.000287032
-0.000102636
1.72923e-07
-0.00027982
-0.000151416
1.07136e-07
-0.00026298
-0.000209432
-4.76516e-08
-0.000230724
-0.000277979
-3.01772e-07
-0.000174611
-0.000356949
-7.28259e-07
-9.51745e-05
-0.000420983
-1.02448e-06
-0.000395148
-1.14318e-06
-6.73064e-05
0.000347002
-3.49397e-06
-0.000135907
0.000403558
-2.87934e-06
-0.000190806
0.000363849
-2.06443e-06
-0.00023065
0.000309489
-1.33819e-06
-0.00025854
0.000255954
-7.62095e-07
-0.000277468
0.000205938
-3.5521e-07
-0.000290271
0.000160744
-8.69268e-08
-0.000299254
0.000120221
9.04218e-08
-0.000306162
8.35094e-05
2.08788e-07
-0.000312246
4.93458e-05
2.89714e-07
-0.000318265
1.62049e-05
3.5356e-07
-0.000324595
-1.77578e-05
4.15343e-07
-0.000330969
-5.4795e-05
4.71004e-07
-0.000336252
-9.77291e-05
5.09719e-07
-0.000337885
-0.000150196
4.94602e-07
-0.000330682
-0.000217074
3.47949e-07
-0.000306307
-0.000302801
-2.73071e-08
-0.000247276
-0.000416535
-8.15383e-07
-0.000150946
-0.000517769
-1.43322e-06
-0.00054664
-2.49288e-06
-9.97062e-05
0.000446426
-5.01829e-06
-0.000181473
0.000485434
-4.13503e-06
-0.000243126
0.000425686
-2.67992e-06
-0.000283278
0.000349748
-1.48716e-06
-0.000308236
0.000280929
-6.00041e-07
-0.000322759
0.000220384
-4.82346e-08
-0.000331087
0.000168905
2.85786e-07
-0.000336341
0.000125249
4.70202e-07
-0.000340748
8.76477e-05
5.75174e-07
-0.00034588
5.41733e-05
6.49236e-07
-0.00035281
2.27929e-05
7.25975e-07
-0.00036232
-8.63072e-06
8.28681e-07
-0.000374723
-4.28471e-05
9.62814e-07
-0.000389596
-8.33811e-05
1.1286e-06
-0.00040534
-0.000135037
1.28634e-06
-0.000415841
-0.000207194
1.29354e-06
-0.000413012
-0.000306214
1.04998e-06
-0.000361703
-0.000468521
-3.49963e-07
-0.000257494
-0.000622453
-1.31386e-06
-0.000805813
-5.0927e-06
-0.000128219
0.000572626
-9.31736e-06
-0.000237897
0.000594753
-6.33868e-06
-0.000311951
0.000499874
-3.42395e-06
-0.000350573
0.000388647
-1.27798e-06
-0.000367933
0.000298472
8.02934e-08
-0.000373528
0.000226015
7.38828e-07
-0.000373812
0.000169089
1.04376e-06
-0.000372719
0.000123958
1.15924e-06
-0.000372736
8.7397e-05
1.199e-06
-0.000375542
5.66551e-05
1.23384e-06
-0.000382385
2.92606e-05
1.317e-06
-0.000394721
3.28049e-06
1.48917e-06
-0.000413302
-2.47706e-05
1.77671e-06
-0.000439114
-5.8111e-05
2.22128e-06
-0.000474419
-0.000100216
2.85248e-06
-0.000510949
-0.000171026
3.38733e-06
-0.000553786
-0.000263254
4.08137e-06
-0.000533184
-0.000489243
1.92276e-06
-0.000437432
-0.000717618
8.69171e-07
-0.00124686
-9.4209e-06
-0.000287947
0.000857535
-1.28951e-05
-0.000373054
0.000678242
-9.55325e-06
-0.000416389
0.000543732
-3.51387e-06
-0.000429719
0.00040279
-2.79875e-07
-0.000422101
0.000291674
1.63268e-06
-0.000407074
0.000211556
2.34503e-06
-0.000391286
0.00015361
2.48793e-06
-0.000378093
0.000110861
2.37656e-06
-0.000369409
7.86566e-05
2.21833e-06
-0.00036654
5.36143e-05
2.12476e-06
-0.000370664
3.31141e-05
2.15832e-06
-0.000382816
1.50697e-05
2.37646e-06
-0.000405601
-2.30219e-06
2.86708e-06
-0.000442492
-2.14807e-05
3.6736e-06
-0.000499906
-4.27596e-05
4.95247e-06
-0.00056854
-0.000101807
6.33989e-06
-0.000654856
-0.000174357
9.03729e-06
-0.000675704
-0.000465268
6.89472e-06
-0.000548362
-0.000838669
7.75648e-06
-0.00179789
-1.28385e-05
-0.000512575
0.00136066
-2.18346e-05
-0.000476905
0.000645903
-5.34708e-06
-0.000390857
0.000462704
1.97468e-06
-0.000289878
0.000307465
6.47688e-06
-0.000194332
0.000200715
7.53546e-06
-0.000115497
0.000135828
6.8182e-06
-5.49998e-05
9.50744e-05
5.75582e-06
-1.05608e-05
6.76095e-05
4.7668e-06
2.05468e-05
4.82537e-05
4.02307e-06
4.0506e-05
3.40484e-05
3.58346e-06
5.05808e-05
2.32306e-05
3.46608e-06
5.16232e-05
1.41219e-05
3.78058e-06
4.33141e-05
6.05492e-06
4.68171e-06
2.64044e-05
-4.07212e-06
6.19855e-06
7.54245e-06
-2.16285e-05
1.0519e-05
-3.57645e-05
-5.65718e-05
1.22158e-05
-4.81629e-05
-0.000151425
2.64332e-05
-0.000126041
-0.000377345
2.09177e-05
-7.51751e-05
-0.000867045
3.24914e-05
-0.00188132
-2.47697e-05
0.00134483
-3.39946e-05
0.00198162
-2.59386e-05
0.00244285
-1.28919e-05
0.00275298
-2.04392e-06
0.00295698
3.291e-06
0.00309546
5.08729e-06
0.00319246
5.35435e-06
0.00326135
4.91979e-06
0.00331041
4.29402e-06
0.00334495
3.76621e-06
0.0033685
3.50278e-06
0.00338284
3.49387e-06
0.00338928
4.18291e-06
0.00338567
4.78507e-06
0.003366
8.1842e-06
0.00331174
9.08669e-06
0.00316792
1.74066e-05
0.00279902
1.65606e-05
0.00192547
-3.6627e-06
-6.68947e-05
-7.06711e-06
7.07181e-06
-5.25062e-08
-1.60723e-05
9.04966e-06
-2.84844e-08
-2.48504e-05
8.82735e-06
-1.42673e-08
-3.30106e-05