/*--------------------------------*- C++ -*----------------------------------*\
  =========                 |
  \\      /  F ield         | OpenFOAM: The Open Source CFD Toolbox
   \\    /   O peration     | Website:  https://openfoam.org
    \\  /    A nd           | Version:  10
     \\/     M anipulation  |
\*---------------------------------------------------------------------------*/
FoamFile
{
    format      ascii;
    class       volScalarField;
    location    "5.225";
    object      p;
}
// * * * * * * * * * * * * * * * * * * * * * * * * * * * * * * * * * * * * * //

dimensions      [0 2 -2 0 0 0 0];

internalField   nonuniform List<scalar> 
400
(
2.14921e-09
-2.28696e-05
1.20652e-05
8.19773e-05
0.000193056
0.000346297
0.000542969
0.000784299
0.00107071
0.00140112
0.0017722
0.00217748
0.00260648
0.00304419
0.00347065
0.0038616
0.00418971
0.00442763
0.00456876
0.00455738
2.37018e-05
5.09675e-08
3.81235e-05
0.000107255
0.000215203
0.00036367
0.000554406
0.000789026
0.00106834
0.00139171
0.00175635
0.00215611
0.0025811
0.00301723
0.00344462
0.00383881
0.00417163
0.00441524
0.00456435
0.0045511
-1.58797e-05
-4.55672e-05
-9.11441e-06
5.69353e-05
0.000161159
0.000305529
0.000492295
0.000723804
0.00100174
0.0013265
0.00169633
0.00210662
0.00254878
0.0030081
0.00346413
0.00389027
0.00425443
0.00452294
0.0046885
0.00466771
-9.88325e-05
-0.000133075
-9.9118e-05
-3.74133e-05
6.15512e-05
0.000200181
0.000381514
0.000609005
0.000885736
0.00121378
0.00159329
0.0020214
0.00249102
0.0029891
0.00349408
0.00397585
0.0043953
0.0047088
0.00490468
0.00487933
-0.000230803
-0.000269572
-0.000239219
-0.000183285
-9.12381e-05
3.9884e-05
0.000214129
0.000436392
0.000711654
0.00104435
0.00143741
0.00189087
0.00240029
0.00295434
0.00353109
0.00409647
0.00460228
0.00498834
0.00523385
0.00520597
-0.000411381
-0.000455353
-0.00042984
-0.000381519
-0.000298799
-0.000178104
-1.42236e-05
0.000199445
0.000470227
0.00080567
0.00121258
0.00169537
0.00225385
0.00288083
0.00355541
0.00423964
0.00487344
0.00537267
0.0056975
0.00567133
-0.000639602
-0.000689819
-0.000670585
-0.000632302
-0.000562311
-0.00045647
-0.000308377
-0.000109568
0.000149981
0.000481632
0.000897401
0.00140824
0.00202072
0.00273365
0.00353292
0.00437893
0.00519785
0.00587322
0.00632619
0.00631526
-0.000914486
-0.000972241
-0.000960939
-0.000935672
-0.000882801
-0.000797827
-0.000673329
-0.00049907
-0.000262232
5.27887e-05
0.000464241
0.000991729
0.00165382
0.00245777
0.00340561
0.00446251
0.00554356
0.00649318
0.00716006
0.00720528
-0.00123479
-0.0013015
-0.00129979
-0.00129083
-0.00126022
-0.00120354
-0.00111281
-0.000976492
-0.000779346
-0.000501659
-0.000118596
0.000399945
0.00108693
0.00197324
0.00307632
0.00438951
0.00583001
0.00720574
0.00824576
0.00846119
-0.00159894
-0.00167603
-0.00168519
-0.00169563
-0.00169261
-0.0016725
-0.0016276
-0.00154606
-0.00141136
-0.0012009
-0.000884238
-0.000421094
0.000239525
0.00115898
0.00238445
0.00396731
0.00586507
0.00789327
0.00961039
0.0103042
-0.00200538
-0.00209408
-0.00211421
-0.00214614
-0.00217532
-0.00219984
-0.00221351
-0.00220574
-0.0021609
-0.00205632
-0.00185935
-0.00152357
-0.000983954
-0.000155095
0.00106126
0.00282774
0.00518606
0.00814348
0.0111092
0.0128106
-0.0024533
-0.00255422
-0.0025831
-0.00263629
-0.00270015
-0.00277561
-0.00285944
-0.00294422
-0.00301817
-0.00306317
-0.00305182
-0.0029426
-0.00267098
-0.00213488
-0.00118393
0.000307295
0.00273896
0.00663944
0.011525
0.015238
-0.00294447
-0.00305724
-0.00308867
-0.00315893
-0.00325555
-0.00338389
-0.00354548
-0.003738
-0.00395695
-0.00419485
-0.00443961
-0.00467241
-0.00486482
-0.00498032
-0.00499238
-0.0048219
-0.00377519
-0.000488652
0.00593247
0.0132803
-0.00348205
-0.00359793
-0.00361487
-0.00369086
-0.00381506
-0.00399585
-0.00423776
-0.00454538
-0.00492448
-0.00538334
-0.00593564
-0.00660649
-0.00744855
-0.00858738
-0.0103514
-0.0131768
-0.0169262
-0.015944
-0.00909133
0.00314192
-0.00410005
-0.00423148
-0.00422077
-0.00429395
-0.00442343
-0.00463085
-0.00493003
-0.00533526
-0.00586475
-0.00654607
-0.00742607
-0.00858744
-0.0102041
-0.0125998
-0.0165773
-0.0231556
-0.0331148
-0.0365464
-0.0304997
-0.0126424
-0.00487752
-0.00481005
-0.00469502
-0.00468684
-0.00480711
-0.00505843
-0.00544005
-0.00595861
-0.006635
-0.00750759
-0.0086495
-0.010193
-0.012426
-0.0157666
-0.0215441
-0.0304575
-0.0449542
-0.0514841
-0.0470343
-0.0226712
-0.00536489
-0.00579986
-0.00554767
-0.00560053
-0.00564797
-0.00582584
-0.00615028
-0.00664703
-0.00734512
-0.00828156
-0.00953541
-0.0112235
-0.0137133
-0.0172863
-0.0236758
-0.032761
-0.0472288
-0.0533508
-0.0476346
-0.0126152
-0.00870722
-0.00619428
-0.00563017
-0.00513927
-0.0051541
-0.0054337
-0.00592168
-0.00657477
-0.00740926
-0.00844007
-0.00976231
-0.0114277
-0.0138423
-0.0172007
-0.0227833
-0.0301402
-0.0401683
-0.0420901
-0.029976
0.0215136
-0.00548696
-0.00844889
-0.00747601
-0.00758011
-0.00724806
-0.00713965
-0.00723246
-0.00755618
-0.00815143
-0.00897745
-0.0101231
-0.0115947
-0.0138091
-0.0168013
-0.0218609
-0.0275208
-0.0344473
-0.0261898
0.00174098
0.0848776
-0.0305106
-0.00552694
-0.00418307
-0.00352213
-0.00341829
-0.00376085
-0.00445271
-0.00525142
-0.0062638
-0.00740251
-0.00886462
-0.010627
-0.0130566
-0.0158553
-0.019281
-0.0202135
-0.0156632
0.0144878
0.0851562
0.223089
)
;

boundaryField
{
    movingWall
    {
        type            zeroGradient;
    }
    fixedWalls
    {
        type            zeroGradient;
    }
    frontAndBack
    {
        type            empty;
    }
}


// ************************************************************************* //
