/*--------------------------------*- C++ -*----------------------------------*\
  =========                 |
  \\      /  F ield         | OpenFOAM: The Open Source CFD Toolbox
   \\    /   O peration     | Website:  https://openfoam.org
    \\  /    A nd           | Version:  10
     \\/     M anipulation  |
\*---------------------------------------------------------------------------*/
FoamFile
{
    format      ascii;
    class       volScalarField;
    location    "8";
    object      p;
}
// * * * * * * * * * * * * * * * * * * * * * * * * * * * * * * * * * * * * * //

dimensions      [0 2 -2 0 0 0 0];

internalField   nonuniform List<scalar> 
8000
(
-9.71337e-09
8.14278e-07
4.49572e-05
0.00013211
0.000263596
0.000441588
0.000667971
0.000944569
0.00127186
0.00164855
0.00207049
0.00252951
0.0030122
0.00349923
0.00396544
0.00438161
0.00471841
0.00495308
0.00507521
0.0050835
-4.62182e-06
-3.64021e-06
4.19821e-05
0.00012896
0.00025901
0.000434702
0.000658242
0.000931461
0.0012552
0.00162854
0.00204779
0.00250523
0.00298789
0.00347667
0.00394631
0.00436691
0.0047078
0.00494538
0.00506832
0.0050704
-6.76308e-05
-6.92235e-05
-2.51657e-05
5.91535e-05
0.000185328
0.000356287
0.000574717
0.000843112
0.00116323
0.0015353
0.00195694
0.00242175
0.00291775
0.00342595
0.00391984
0.00436624
0.00472934
0.00498062
0.00510599
0.005097
-0.000191745
-0.000196003
-0.000155103
-7.55423e-05
4.43281e-05
0.000207901
0.000418578
0.000679899
0.000995062
0.00136613
0.00179286
0.00227109
0.00279058
0.00333281
0.0038696
0.00436296
0.00476738
0.00504489
0.00517636
0.00515221
-0.000380305
-0.000387151
-0.00035074
-0.00027807
-0.000167257
-1.43483e-05
0.000184927
0.00043542
0.00074218
0.00110974
0.00154096
0.00203511
0.00258515
0.003174
0.00377111
0.00433609
0.00480578
0.00512655
0.00526923
0.00522136
-0.000634561
-0.000644361
-0.000613979
-0.000550715
-0.000452435
-0.000314666
-0.000132268
0.000100994
0.000392255
0.000749039
0.00117823
0.00168416
0.00226523
0.00290784
0.003576
0.00424505
0.00481216
0.00520239
0.00536587
0.00527929
-0.000953987
-0.000967356
-0.000944767
-0.000893892
-0.000812518
-0.000695881
-0.000538231
-0.000332188
-6.867e-05
0.000262941
0.00067422
0.0011762
0.00177619
0.00247229
0.00324691
0.00401652
0.00471768
0.00522059
0.00542872
0.00528461
-0.00133696
-0.00135461
-0.00134168
-0.00130649
-0.00124713
-0.00115904
-0.00103646
-0.000871598
-0.000654213
-0.000371353
-7.23809e-06
0.000456133
0.00103678
0.00174722
0.00258145
0.00349351
0.00437164
0.00506154
0.00537889
0.00517705
-0.00178099
-0.00180357
-0.00180192
-0.00178555
-0.00175347
-0.00170212
-0.00162678
-0.00152056
-0.00137382
-0.00117346
-0.000902063
-0.000537167
-5.12332e-05
0.000586515
0.00140251
0.00238852
0.00347019
0.00444672
0.00503791
0.00488624
-0.00228303
-0.00231091
-0.00232132
-0.00232586
-0.00232537
-0.00231845
-0.00230282
-0.0022745
-0.00222727
-0.00215201
-0.00203555
-0.0018592
-0.00159661
-0.00120944
-0.000638584
0.000199632
0.00137399
0.00280211
0.00402095
0.00433073
-0.00284015
-0.00287306
-0.00289453
-0.00291968
-0.00295255
-0.00299521
-0.00304956
-0.0031169
-0.00319816
-0.00329405
-0.00340516
-0.00353183
-0.0036728
-0.00381526
-0.00389253
-0.00368204
-0.00274098
-0.00073115
0.00177452
0.00334087
-0.00345109
-0.00348759
-0.00351584
-0.00355707
-0.00362034
-0.00371266
-0.0038416
-0.00401605
-0.0042478
-0.0045538
-0.00495956
-0.00550322
-0.00623828
-0.00721302
-0.0083654
-0.00924141
-0.00872045
-0.00584273
-0.00149156
0.00185971
-0.00411912
-0.0041556
-0.00418087
-0.00422689
-0.00431045
-0.00444461
-0.00464349
-0.00492472
-0.00531319
-0.00584627
-0.00658246
-0.00760933
-0.00904798
-0.0109962
-0.013326
-0.0152281
-0.014726
-0.0105373
-0.00450948
0.000440101
-0.00485707
-0.00488514
-0.00488799
-0.00491765
-0.00500208
-0.00516051
-0.00541282
-0.00578456
-0.00631287
-0.00705385
-0.00809936
-0.00957644
-0.0116479
-0.0144011
-0.0175639
-0.0200984
-0.0196744
-0.0150332
-0.0083137
-0.000709634
-0.00570062
-0.00570371
-0.00564842
-0.00562484
-0.00567786
-0.00583136
-0.00610781
-0.00653713
-0.00716471
-0.00805078
-0.00932353
-0.0111273
-0.0136436
-0.0169092
-0.0205528
-0.0239336
-0.0249469
-0.0215021
-0.0140241
-0.00238431
-0.00671897
-0.00664971
-0.00646193
-0.00633144
-0.00631426
-0.00642846
-0.00669262
-0.00713542
-0.00780001
-0.0087636
-0.0101438
-0.0120992
-0.0148121
-0.0183382
-0.0223882
-0.0265882
-0.0298365
-0.0274577
-0.0190486
-0.00343721
-0.008065
-0.00788063
-0.00744007
-0.00709954
-0.00693872
-0.00695834
-0.00716162
-0.00756585
-0.00821148
-0.00916305
-0.0105399
-0.0124865
-0.015171
-0.0186555
-0.022749
-0.0270337
-0.0304779
-0.0279346
-0.0187085
0.00202319
-0.010538
-0.00948483
-0.00834722
-0.00771976
-0.00742034
-0.00734684
-0.00747709
-0.00781548
-0.00840557
-0.00928589
-0.0105945
-0.0124302
-0.0149447
-0.0181289
-0.0218
-0.0251838
-0.0270088
-0.0217445
-0.00808009
0.0263124
-0.0124334
-0.0125536
-0.0104553
-0.00909596
-0.00835707
-0.00800044
-0.00793245
-0.00811191
-0.00857872
-0.00935012
-0.0105574
-0.0122499
-0.0145906
-0.0173826
-0.0203549
-0.0220008
-0.0203572
-0.00741833
0.0212474
0.0816607
-0.0307582
-0.0139005
-0.00859874
-0.00733512
-0.00684137
-0.00658326
-0.00663181
-0.00694231
-0.0075724
-0.00846861
-0.00983607
-0.0116151
-0.0140634
-0.0166698
-0.0190108
-0.0181481
-0.0101207
0.0167774
0.0708687
0.159196
5.02386e-06
-3.39605e-06
3.73326e-05
0.000123031
0.000254621
0.000433586
0.000661646
0.000940172
0.00126997
0.00165
0.00207635
0.00254099
0.00303057
0.00352554
0.00400012
0.00442389
0.00476568
0.00500082
0.00511731
0.00511027
1.01144e-05
2.25369e-06
4.65836e-05
0.000133474
0.000263619
0.000439527
0.00066336
0.00093696
0.00126132
0.00163572
0.00205669
0.00251674
0.00300304
0.00349672
0.00397196
0.00439776
0.00474196
0.00497958
0.00509794
0.00508375
-4.77774e-05
-6.0068e-05
-1.71263e-05
6.73355e-05
0.00019359
0.00036459
0.00058302
0.000851444
0.00117176
0.00154442
0.00196733
0.00243444
0.00293412
0.00344765
0.00394791
0.00440045
0.00476751
0.00501869
0.00513819
0.0051086
-0.000168806
-0.000185063
-0.000145334
-6.55748e-05
5.4395e-05
0.00021801
0.000428686
0.000690055
0.00100548
0.00137728
0.00180561
0.00228679
0.00281105
0.0033603
0.00390595
0.00440756
0.00481731
0.00509445
0.00521767
0.0051675
-0.00035541
-0.000375035
-0.000339826
-0.00026688
-0.000155863
-2.75843e-06
0.000196736
0.000447591
0.000755054
0.00112398
0.00155773
0.00205623
0.00261311
0.00321177
0.00382323
0.00439946
0.00487688
0.00519689
0.0053272
0.00524456
-0.000608306
-0.000631525
-0.000602375
-0.000538724
-0.00044006
-0.000301819
-0.0001188
0.000115393
0.000408151
0.000767398
0.00120065
0.00171315
0.00230425
0.00296106
0.00365829
0.00433994
0.0049199
0.00531017
0.00545467
0.00531593
-0.000926598
-0.000954053
-0.000932744
-0.000881366
-0.000799405
-0.00068197
-0.000523199
-0.00031549
-4.94212e-05
0.000286152
0.000703661
0.00121551
0.00183064
0.002548
0.00334064
0.00415703
0.00488807
0.00539771
0.005578
0.00534439
-0.00130849
-0.00134101
-0.00132946
-0.00129369
-0.00123359
-0.00114441
-0.00102021
-0.000852895
-0.000631772
-0.000343193
2.97553e-05
0.00050697
0.00110927
0.00185092
0.00271974
0.00369984
0.00464842
0.0053735
0.00565774
0.00528641
-0.00175143
-0.00178985
-0.00178976
-0.00177285
-0.00173999
-0.00168738
-0.00161004
-0.00150067
-0.00134906
-0.00114122
-0.000858327
-0.000475594
3.84223e-05
0.000720852
0.00160896
0.0026761
0.00389698
0.00502364
0.00560717
0.00514582
-0.00225225
-0.0022972
-0.00230952
-0.0023137
-0.00231262
-0.0023045
-0.00228673
-0.00225483
-0.00220191
-0.00211786
-0.00198805
-0.00179175
-0.00149995
-0.00106964
-0.000428573
0.000539335
0.00196641
0.00378389
0.00512352
0.00505301
-0.00280781
-0.00285945
-0.00288334
-0.00290854
-0.00294126
-0.00298312
-0.00303555
-0.00309932
-0.00317467
-0.00326149
-0.00335956
-0.00346942
-0.00359526
-0.00373981
-0.00383793
-0.003563
-0.00224582
0.000467776
0.00334688
0.00491309
-0.00341636
-0.00347385
-0.00350525
-0.00354718
-0.00361111
-0.0037034
-0.00383109
-0.00400249
-0.00422886
-0.00452696
-0.00492334
-0.0054624
-0.00622211
-0.00731251
-0.00872065
-0.00983322
-0.00917442
-0.0056595
-0.000633217
0.00382801
-0.00408023
-0.00414104
-0.00417051
-0.0042181
-0.0043034
-0.00443863
-0.00463721
-0.00491623
-0.00530031
-0.00582772
-0.00656094
-0.00760421
-0.00913028
-0.0113602
-0.0143091
-0.0171225
-0.0173916
-0.0132922
-0.00666908
0.00101761
-0.00480946
-0.0048662
-0.00487447
-0.00490723
-0.0049953
-0.00515647
-0.00540968
-0.00577989
-0.00630411
-0.00704082
-0.00808664
-0.00959705
-0.011814
-0.0150058
-0.0191508
-0.023394
-0.0249711
-0.0212709
-0.0140896
-0.00347803
-0.00563645
-0.00567721
-0.00563145
-0.00561205
-0.00566977
-0.00582701
-0.00610483
-0.00653204
-0.00715285
-0.00803753
-0.00930511
-0.0111346
-0.0138033
-0.0175704
-0.0224175
-0.0278514
-0.0314456
-0.029195
-0.0219349
-0.00817469
-0.00661535
-0.00658746
-0.00640869
-0.00629061
-0.00628731
-0.00641165
-0.00668032
-0.00712107
-0.00777924
-0.00872822
-0.0100915
-0.0120383
-0.0148657
-0.0188165
-0.0239142
-0.029806
-0.0351062
-0.033824
-0.0271466
-0.0092393
-0.00780645
-0.00776518
-0.00737704
-0.00705184
-0.00690484
-0.00693534
-0.00714246
-0.00754173
-0.00817369
-0.00909214
-0.0104237
-0.0123312
-0.0150566
-0.0188045
-0.0235905
-0.0289339
-0.0335159
-0.0320972
-0.0265039
-0.000385444
-0.0102308
-0.00916834
-0.00802057
-0.00747608
-0.00726076
-0.00724427
-0.00740596
-0.00775317
-0.00834208
-0.0091408
-0.0104008
-0.0121699
-0.0146681
-0.0179892
-0.0220693
-0.0260727
-0.0286829
-0.0248379
-0.0125501
0.0277533
-0.0101968
-0.0117528
-0.00994841
-0.0087937
-0.00818815
-0.00792693
-0.00790315
-0.00808355
-0.0085227
-0.00922599
-0.0103541
-0.0119547
-0.0142621
-0.0171472
-0.0204754
-0.0226395
-0.0215273
-0.00892486
0.0229599
0.0891887
-0.0284747
-0.0125083
-0.00750962
-0.00651723
-0.00626114
-0.00614774
-0.00627587
-0.00661363
-0.00724601
-0.00810524
-0.00941451
-0.0111348
-0.0135607
-0.0163097
-0.0188819
-0.0183711
-0.00992491
0.0184726
0.0805133
0.180331
1.77588e-05
4.11846e-06
4.31644e-05
0.000128697
0.000260759
0.000440801
0.000670555
0.000951757
0.0012854
0.00167072
0.00210408
0.00257761
0.00307791
0.00358511
0.00407218
0.0045068
0.00485532
0.00509098
0.00520116
0.00518036
3.0516e-05
1.67822e-05
6.00956e-05
0.000146945
0.000277383
0.000453966
0.00067895
0.000954381
0.0012815
0.00165989
0.0020864
0.00255375
0.00304915
0.00355378
0.00404042
0.00447627
0.00482669
0.00506472
0.00517725
0.00514924
-2.17424e-05
-4.11473e-05
8.33305e-07
8.52821e-05
0.000211729
0.00038322
0.000602572
0.000872583
0.00119547
0.00157208
0.00200075
0.00247585
0.00298604
0.00351234
0.00402649
0.00449159
0.00486653
0.00511803
0.00522962
0.00518181
-0.000138288
-0.000162568
-0.00012382
-4.40525e-05
7.60994e-05
0.000240205
0.000451849
0.000714963
0.00103332
0.00140976
0.00184509
0.00233623
0.00287383
0.00344031
0.00400497
0.00452417
0.00494521
0.00522259
0.00533382
0.00525812
-0.000321307
-0.000349572
-0.000315324
-0.000242283
-0.00013096
2.28449e-05
0.00022366
0.000476833
0.00078814
0.00116315
0.00160613
0.00211798
0.00269314
0.00331628
0.0039556
0.00455825
0.00505336
0.00537385
0.00548467
0.00536279
-0.000571103
-0.000603499
-0.000575265
-0.000511368
-0.000412166
-0.000272852
-8.79206e-05
0.00014951
0.000447517
0.000814981
0.00126071
0.0017914
0.00240773
0.00310137
0.00384082
0.00456422
0.00517458
0.00556736
0.00567894
0.00547296
-0.000886381
-0.000923579
-0.000903142
-0.00085136
-0.000768609
-0.000649679
-0.000488308
-0.00027627
-3.25241e-06
0.000343187
0.000777352
0.0013143
0.00196612
0.00273003
0.0035887
0.00447683
0.00526466
0.00578499
0.0059093
0.00555058
-0.00126509
-0.001308
-0.00129732
-0.00126107
-0.00120002
-0.00110902
-0.000981626
-0.000808959
-0.000579212
-0.00027707
0.000116924
0.000626605
0.00127745
0.00208759
0.00305867
0.00415034
0.00520608
0.00596659
0.00615267
0.00554975
-0.00170443
-0.00175404
-0.00175495
-0.00173761
-0.00170386
-0.00164939
-0.00156857
-0.00145321
-0.00129177
-0.00106829
-0.000760843
-0.000339903
0.000232945
0.00100173
0.00199773
0.00325606
0.00466773
0.00588453
0.0062946
0.00548607
-0.00220097
-0.00225809
-0.00227167
-0.00227576
-0.00227419
-0.00226459
-0.00224362
-0.00220582
-0.00214293
-0.00204283
-0.00188794
-0.00165335
-0.00130493
-0.000794511
-3.82474e-05
0.0010853
0.00276944
0.00475905
0.00590159
0.00554496
-0.00275106
-0.0028161
-0.00284174
-0.00286749
-0.0029006
-0.00294195
-0.0029922
-0.0030512
-0.00311805
-0.00319132
-0.00326951
-0.00335386
-0.00345791
-0.00360928
-0.00375071
-0.00346485
-0.00196909
0.00107471
0.00398035
0.00561429
-0.00335203
-0.00342442
-0.00345832
-0.00350188
-0.00356763
-0.00366106
-0.00378841
-0.0039573
-0.00417848
-0.00446904
-0.00485851
-0.00540296
-0.0062197
-0.00750195
-0.00925911
-0.0106027
-0.00999198
-0.00606946
-0.000793798
0.00427326
-0.00400455
-0.00408235
-0.00411551
-0.00416625
-0.00425531
-0.00439391
-0.00459465
-0.00487421
-0.00525757
-0.00578571
-0.00653018
-0.00762213
-0.00930578
-0.0119327
-0.0155673
-0.0191692
-0.0197471
-0.0156697
-0.00870742
2.90496e-05
-0.00471499
-0.00479111
-0.0048045
-0.00484285
-0.00493775
-0.00510537
-0.00536372
-0.00573752
-0.00626481
-0.00700855
-0.00807857
-0.00966979
-0.0121153
-0.0158264
-0.020839
-0.0261403
-0.0286834
-0.0255551
-0.0179921
-0.00624334
-0.00551066
-0.00557599
-0.00553945
-0.00552851
-0.00559617
-0.00576299
-0.00604862
-0.00648132
-0.0071061
-0.00799815
-0.00928836
-0.011201
-0.0140955
-0.0183767
-0.0240579
-0.0303983
-0.0349635
-0.0330897
-0.0255519
-0.0115362
-0.00643275
-0.00643253
-0.00626383
-0.00616095
-0.00617607
-0.00631721
-0.00659856
-0.00704677
-0.00770725
-0.00865563
-0.0100246
-0.0120291
-0.0150133
-0.0193385
-0.0250296
-0.0312171
-0.0368992
-0.0353566
-0.0286191
-0.0116265
-0.00748442
-0.0075161
-0.00716413
-0.00686515
-0.00674361
-0.00679702
-0.00702079
-0.00742767
-0.00805516
-0.00896543
-0.010285
-0.012185
-0.0149858
-0.0189415
-0.0240258
-0.0293681
-0.0334637
-0.0317758
-0.0252443
-0.00149926
-0.00981997
-0.0087811
-0.00762405
-0.00711561
-0.00695556
-0.00698903
-0.00718656
-0.00754965
-0.00812074
-0.00894078
-0.010141
-0.0118732
-0.0143866
-0.0178061
-0.022034
-0.0259458
-0.0279078
-0.0235528
-0.0106206
0.02845
-0.00897103
-0.010979
-0.0093033
-0.00826002
-0.0077459
-0.0075569
-0.0075861
-0.00778852
-0.00822407
-0.00890471
-0.00997708
-0.0115275
-0.0138292
-0.0167986
-0.0202958
-0.0224907
-0.0210129
-0.00755248
0.0259259
0.0934714
-0.0273363
-0.0115866
-0.00671707
-0.00584643
-0.00569967
-0.0056661
-0.00583775
-0.00619375
-0.00681308
-0.00764435
-0.0088912
-0.0105767
-0.0129845
-0.0158597
-0.0185566
-0.0180849
-0.00879964
0.0211181
0.0868086
0.190411
3.40885e-05
1.78545e-05
5.59626e-05
0.000141539
0.000274411
0.000456031
0.000688238
0.00097299
0.00131153
0.00170338
0.00214515
0.00262912
0.00314175
0.0036625
0.00416316
0.00460947
0.0049655
0.00520275
0.00530878
0.00527909
5.10264e-05
3.43498e-05
7.70913e-05
0.000164112
0.000295243
0.000473119
0.000700145
0.000978597
0.00131
0.00169425
0.00212851
0.00260568
0.00311304
0.00363101
0.0041313
0.00457904
0.00493711
0.00517675
0.00528518
0.00524836
2.79395e-06
-2.01524e-05
2.13112e-05
0.000105962
0.000233057
0.000405756
0.000627061
0.000900048
0.0012273
0.00161006
0.00204711
0.00253316
0.00305702
0.00359924
0.00413007
0.00460998
0.00499446
0.00524756
0.00535307
0.00529314
-0.000109955
-0.000138254
-0.000100019
-2.00137e-05
0.000100822
0.000266209
0.000479965
0.000746371
0.00106966
0.00145326
0.00189856
0.00240304
0.00295784
0.00354516
0.0041322
0.00467173
0.00510593
0.00538483
0.0054861
0.00539212
-0.000289557
-0.000322184
-0.000288424
-0.000215056
-0.000102905
5.24281e-05
0.000255767
0.000512909
0.000830235
0.00121408
0.0016696
0.00219848
0.00279525
0.00344787
0.004119
0.00475126
0.00526586
0.00558773
0.00568127
0.00552943
-0.000536147
-0.000573205
-0.000545416
-0.00048106
-0.000380809
-0.000239601
-5.15522e-05
0.000190787
0.000496273
0.00087483
0.0013366
0.00188908
0.00252906
0.00326844
0.00405436
0.00482248
0.00546336
0.00585748
0.00593844
0.00567982
-0.000848184
-0.000890361
-0.000870335
-0.000817968
-0.000733955
-0.000612761
-0.000447654
-0.000229707
5.23856e-05
0.000412461
0.000866784
0.00143333
0.00213128
0.00294122
0.00386481
0.00482119
0.00565834
0.00618012
0.00624989
0.00579725
-0.00122339
-0.00127166
-0.00126141
-0.00122453
-0.00116212
-0.00106863
-0.000937067
-0.000757715
-0.000517594
-0.000199697
0.000217858
0.000762358
0.00146344
0.00233761
0.00340145
0.00459257
0.00572804
0.00649114
0.00657814
0.0058214
-0.00165873
-0.00171416
-0.00171562
-0.00169778
-0.00166281
-0.00160593
-0.00152093
-0.00139869
-0.00122644
-0.0009864
-0.000654008
-0.000195701
0.000431639
0.00127661
0.00237484
0.00375852
0.00529413
0.00652736
0.00676961
0.00576515
-0.00215044
-0.00221394
-0.00222835
-0.0022323
-0.00222999
-0.00221854
-0.00219401
-0.00215007
-0.00207736
-0.00196228
-0.00178533
-0.00151941
-0.00112863
-0.000566829
0.000245063
0.00148019
0.00333403
0.00538805
0.00633428
0.00585412
-0.00269431
-0.00276641
-0.00279334
-0.00281963
-0.0028529
-0.00289352
-0.0029416
-0.00299635
-0.00305626
-0.00311948
-0.00318488
-0.00325686
-0.00336179
-0.00355075
-0.00375823
-0.00347745
-0.00183653
0.0012844
0.00412928
0.0059477
-0.00328669
-0.00336699
-0.00340286
-0.00344797
-0.00351526
-0.00360964
-0.00373694
-0.00390451
-0.00412332
-0.00441194
-0.00480436
-0.00536907
-0.00625774
-0.00771761
-0.00974096
-0.0113367
-0.0107722
-0.00694758
-0.00151258
0.00423856
-0.00392674
-0.00401353
-0.00404965
-0.00410332
-0.00419569
-0.00433736
-0.0045406
-0.00482217
-0.00520823
-0.00574332
-0.00650808
-0.00765537
-0.0094789
-0.0124027
-0.0164703
-0.0204223
-0.0215737
-0.0179364
-0.0107559
-0.00107048
-0.00461799
-0.00470432
-0.0047219
-0.0047651
-0.00486568
-0.00503891
-0.00530233
-0.00568093
-0.00621429
-0.00697
-0.00806912
-0.00973248
-0.0123469
-0.0164006
-0.0219142
-0.0277584
-0.0308501
-0.0283017
-0.0206977
-0.00827263
-0.00538403
-0.00546184
-0.00543186
-0.0054282
-0.00550418
-0.00567914
-0.00597191
-0.00641061
-0.00704136
-0.00794311
-0.00925632
-0.011229
-0.0142665
-0.0188315
-0.0248867
-0.0314359
-0.0360433
-0.0345146
-0.0273894
-0.0131866
-0.0062585
-0.00627385
-0.00611348
-0.00602141
-0.00604923
-0.00620238
-0.00649335
-0.00694781
-0.0076111
-0.00856065
-0.00993435
-0.0119682
-0.0150326
-0.019514
-0.0253628
-0.0315014
-0.0361401
-0.0347855
-0.0291652
-0.0121154
-0.00723101
-0.00729102
-0.0069539
-0.00667224
-0.00656865
-0.00663809
-0.00687362
-0.0072861
-0.00791137
-0.00881307
-0.0101156
-0.0120094
-0.0148265
-0.0188157
-0.0238556
-0.0287667
-0.0320116
-0.0303019
-0.0247352
-0.00106761
-0.00947469
-0.00846767
-0.00731999
-0.00683166
-0.00669724
-0.00675473
-0.00696999
-0.00734114
-0.00790664
-0.00871419
-0.00988659
-0.0115816
-0.0140775
-0.0174792
-0.0216275
-0.0251962
-0.0265509
-0.0221223
-0.00966663
0.0297566
-0.00841304
-0.0105354
-0.00888998
-0.00788722
-0.0074074
-0.00724991
-0.0072995
-0.00751281
-0.00794425
-0.00860413
-0.00964183
-0.0111517
-0.0134331
-0.0163836
-0.0198298
-0.0219021
-0.0201643
-0.00645685
0.0275105
0.0964395
-0.0267564
-0.0110451
-0.00620557
-0.00538432
-0.00528609
-0.0052908
-0.00548762
-0.005853
-0.00646605
-0.00727461
-0.00848767
-0.01014
-0.0125384
-0.0154252
-0.0181109
-0.0174626
-0.00770326
0.02292
0.0896966
0.195186
5.14647e-05
3.42767e-05
7.21858e-05
0.000158201
0.000292197
0.000475713
0.000710745
0.000999471
0.00134339
0.00174231
0.00219303
0.0026879
0.00321321
0.00374771
0.00426199
0.00472001
0.00508386
0.0053237
0.00542751
0.00539206
7.03724e-05
5.25145e-05
9.5165e-05
0.000182681
0.000314893
0.000494554
0.000724238
0.00100646
0.00134302
0.00173412
0.00217716
0.00266519
0.00318539
0.00371741
0.00423182
0.00469179
0.005058
0.00530021
0.00540623
0.00536384
2.46897e-05
3.22362e-07
4.17247e-05
0.000126907
0.0002551
0.000429604
0.000653621
0.00093051
0.0012632
0.00165333
0.00210003
0.00259828
0.0031369
0.00369574
0.00424361
0.00473851
0.00513286
0.00538849
0.00548987
0.00542189
-8.52455e-05
-0.000115163
-7.69706e-05
3.62246e-06
0.000125641
0.000292976
0.000509693
0.000780429
0.00110987
0.00150196
0.00195864
0.00247787
0.00305107
0.00365955
0.0042689
0.00482842
0.00527566
0.00555686
0.00565052
0.00554355
-0.000262034
-0.000296428
-0.000262676
-0.000188625
-7.51285e-05
8.24205e-05
0.000289162
0.00055134
0.000875923
0.00126997
0.00173946
0.00228697
0.00290806
0.00358815
0.00428963
0.0049499
0.00548274
0.00580625
0.00588558
0.00571131
-0.000505799
-0.000544755
-0.000516931
-0.000451776
-0.000349977
-0.00020621
-1.42058e-05
0.000234047
0.000548157
0.000939025
0.00141803
0.00199452
0.00267057
0.00344174
0.00426928
0.00507777
0.00574518
0.00613944
0.00619415
0.00589534
-0.000814882
-0.000859101
-0.000839017
-0.000785761
-0.000700025
-0.000575966
-0.000406386
-0.000181685
0.000110353
0.000484793
0.00095951
0.00155356
0.00228259
0.00314778
0.00413016
0.00514489
0.00602142
0.00654003
0.00656212
0.00603861
-0.00118686
-0.00123734
-0.00122707
-0.0011893
-0.00112511
-0.00102863
-0.000892306
-0.000705682
-0.00045473
-0.00012101
0.000319289
0.000895906
0.00164104
0.00257507
0.00371119
0.00498135
0.00617545
0.00693048
0.00693179
0.00606173
-0.0016185
-0.00167636
-0.00167792
-0.00165934
-0.00162278
-0.00156308
-0.00147348
-0.00134413
-0.0011612
-0.000905549
-0.000550744
-6.06357e-05
0.000610203
0.00150971
0.00268412
0.00415701
0.00577488
0.00700135
0.00710893
0.0059659
-0.0021057
-0.00217192
-0.00218669
-0.00219026
-0.00218684
-0.00217318
-0.00214485
-0.0020949
-0.00201321
-0.00188531
-0.0016909
-0.00140258
-0.000985985
-0.000399993
0.000432283
0.001714
0.00365156
0.00571948
0.00655049
0.00600933
-0.00264377
-0.00271894
-0.00274665
-0.00277317
-0.00280616
-0.00284565
-0.00289142
-0.00294234
-0.00299675
-0.00305318
-0.00311209
-0.0031829
-0.00330671
-0.00356089
-0.00388395
-0.00371072
-0.00206346
0.00109004
0.00402386
0.00605586
-0.00322828
-0.00331205
-0.00334928
-0.00339549
-0.00346364
-0.0035584
-0.00368542
-0.00385213
-0.00407025
-0.00436057
-0.00476244
-0.00535713
-0.00632876
-0.00798095
-0.0103184
-0.012229
-0.0118545
-0.00808455
-0.0023191
0.00402058
-0.00385719
-0.00394799
-0.00398623
-0.00404208
-0.00413671
-0.00428048
-0.00448562
-0.00476937
-0.00515945
-0.00570441
-0.00649389
-0.00770035
-0.00966222
-0.0128768
-0.0174009
-0.0218357
-0.023371
-0.0199444
-0.0124026
-0.00202174
-0.00453232
-0.0046233
-0.00464395
-0.00469065
-0.00479507
-0.00497212
-0.00523928
-0.00562209
-0.00616198
-0.00693106
-0.00806054
-0.00979255
-0.0125577
-0.0169102
-0.0228516
-0.0290791
-0.0324417
-0.0301003
-0.0223597
-0.00963075
-0.00527514
-0.00535866
-0.005333
-0.00533445
-0.00541597
-0.00559626
-0.00589383
-0.00633703
-0.00697323
-0.00788482
-0.0092202
-0.0112449
-0.014394
-0.0191624
-0.0254598
-0.0320474
-0.0364508
-0.0349132
-0.027998
-0.0139977
-0.00611549
-0.00613895
-0.00598491
-0.00589988
-0.00593512
-0.00609505
-0.00639132
-0.00684912
-0.00751392
-0.0084647
-0.00984389
-0.0118987
-0.0150138
-0.0195599
-0.0254491
-0.0313285
-0.0352977
-0.0338184
-0.028783
-0.0120688
-0.00704752
-0.00711697
-0.00678611
-0.00651424
-0.00642067
-0.00649847
-0.00673954
-0.00715355
-0.00777551
-0.00866904
-0.00995927
-0.0118427
-0.0146583
-0.0186237
-0.02356
-0.0280918
-0.0307446
-0.0289089
-0.0237819
-0.000350821
-0.00922129
-0.00824193
-0.00710826
-0.00663264
-0.00650886
-0.00657506
-0.00679602
-0.00716737
-0.00772617
-0.00851939
-0.00967004
-0.0113371
-0.0138073
-0.017158
-0.0212003
-0.0244887
-0.0254295
-0.0208886
-0.00863213
0.0311639
-0.00814241
-0.0102871
-0.00864675
-0.00765629
-0.00718507
-0.00703533
-0.00709075
-0.00730326
-0.00772709
-0.00836901
-0.00938282
-0.0108607
-0.0131158
-0.0160219
-0.0194101
-0.0213264
-0.0193441
-0.00544044
0.0288426
0.0986316
-0.0264557
-0.0107443
-0.00589983
-0.00509635
-0.00501815
-0.00503783
-0.00524536
-0.0056127
-0.00622042
-0.00701287
-0.00820563
-0.00983209
-0.0122093
-0.0150592
-0.0176725
-0.0168504
-0.00680093
0.0242025
0.0915334
0.197921
6.81922e-05
5.08215e-05
8.89561e-05
0.000175686
0.000311005
0.000496586
0.000734591
0.00102741
0.00137679
0.00178274
0.00224226
0.00274771
0.00328515
0.00383266
0.00435975
0.00482879
0.00520023
0.00544317
0.00554595
0.00550648
8.79907e-05
6.97953e-05
0.00011268
0.000200934
0.000334472
0.000516177
0.000748801
0.00103507
0.00137706
0.0017752
0.00222711
0.00272585
0.00325854
0.00380404
0.00433183
0.00480337
0.00517748
0.00542271
0.00552744
0.00548123
4.39028e-05
1.91202e-05
6.07796e-05
0.000146743
0.000276317
0.000452945
0.000680032
0.000961197
0.00129967
0.00169743
0.0021539
0.0026642
0.0032171
0.00379173
0.00435556
0.0048644
0.00526808
0.00552662
0.00562526
0.00555154
-6.40177e-05
-9.44099e-05
-5.59282e-05
2.55155e-05
0.000149025
0.000318662
0.000538736
0.000814207
0.00115015
0.00155097
0.00201904
0.00255266
0.00314336
0.00377161
0.00440142
0.00497907
0.00543817
0.00572193
0.00580984
0.0056932
-0.000238602
-0.000273513
-0.000239428
-0.000164431
-4.92801e-05
0.000110838
0.000321362
0.00058894
0.000921054
0.00132538
0.00180855
0.00237376
0.00301701
0.00372258
0.00445128
0.00513624
0.00568497
0.00601007
0.00607787
0.00588645
-0.000480022
-0.000519534
-0.000491335
-0.00042513
-0.000321496
-0.000174859
2.14131e-05
0.000275828
0.00059864
0.00100156
0.00149692
0.00209511
0.00279938
0.00360308
0.00446731
0.00531028
0.00599981
0.00639359
0.00642613
0.00609632
-0.000786587
-0.000831405
-0.000810928
-0.000756554
-0.000668847
-0.000541675
-0.000367419
-0.000135898
0.000165875
0.000553952
0.00104744
0.00166627
0.00242537
0.00333526
0.00436691
0.0054299
0.0063382
0.00685234
0.00683309
0.00625488
-0.00115578
-0.00120692
-0.00119629
-0.00115742
-0.00109126
-0.000991589
-0.000850437
-0.000656696
-0.000395492
-4.7253e-05
0.00041331
0.00101797
0.00180165
0.00278244
0.00397628
0.00531014
0.00655122
0.00729672
0.00722303
0.00626448
-0.0015842
-0.00164282
-0.00164414
-0.00162462
-0.00158627
-0.00152362
-0.00142948
-0.00129338
-0.00110075
-0.000831461
-0.000457841
5.78719e-05
0.000762395
0.00170255
0.0029317
0.00447436
0.00615871
0.00737709
0.00736832
0.00611267
-0.00206752
-0.00213461
-0.00214936
-0.00215233
-0.00214758
-0.00213158
-0.00209956
-0.00204414
-0.00195476
-0.00181658
-0.00160915
-0.00130581
-0.000875083
-0.000281383
0.000553128
0.00186142
0.00386365
0.00594663
0.00668457
0.0060871
-0.00260062
-0.00267682
-0.00270486
-0.0027313
-0.00276368
-0.00280184
-0.00284535
-0.002893
-0.00294331
-0.00299563
-0.00305265
-0.00312926
-0.00328119
-0.00361249
-0.00406745
-0.00401004
-0.00237352
0.000845349
0.00388831
0.00608252
-0.00317851
-0.00326351
-0.00330153
-0.00334836
-0.00341685
-0.00351155
-0.00363815
-0.00380437
-0.00402297
-0.00431727
-0.00473221
-0.00536147
-0.00642048
-0.00827305
-0.0109456
-0.0131883
-0.0129555
-0.00908495
-0.00295331
0.00382878
-0.00379839
-0.00389063
-0.00393024
-0.00398754
-0.00408357
-0.00422864
-0.00443515
-0.00472104
-0.0051158
-0.00567209
-0.00648841
-0.00775598
-0.00985681
-0.0133695
-0.0183788
-0.023319
-0.0250523
-0.0215031
-0.0135284
-0.00267063
-0.00446112
-0.00455386
-0.00457657
-0.00462561
-0.00473245
-0.00491194
-0.00518175
-0.00556821
-0.00611474
-0.00689805
-0.00805925
-0.00986112
-0.0127774
-0.0174331
-0.0238253
-0.0304431
-0.0338358
-0.031307
-0.0233295
-0.010421
-0.0051872
-0.00527294
-0.00525004
-0.00525482
-0.00533977
-0.00552331
-0.00582395
-0.00627058
-0.00691206
-0.00783445
-0.00919425
-0.0112734
-0.0145378
-0.0195093
-0.0260781
-0.0327821
-0.0368939
-0.0350209
-0.028138
-0.0143102
-0.00600493
-0.00603213
-0.00588247
-0.00580187
-0.00584123
-0.00600465
-0.00630355
-0.00676304
-0.00742923
-0.0083831
-0.00977208
-0.011854
-0.0150452
-0.0196223
-0.0256186
-0.0313528
-0.0348007
-0.0329604
-0.0282547
-0.011784
-0.00691636
-0.00698809
-0.00666026
-0.00639375
-0.00630531
-0.00638686
-0.00662983
-0.00704322
-0.00766203
-0.00855049
-0.0098363
-0.0117145
-0.0145355
-0.01849
-0.0233768
-0.0276744
-0.0298855
-0.0277774
-0.0228067
0.000402376
-0.00904675
-0.00808426
-0.00696172
-0.00649425
-0.00637496
-0.00644337
-0.00666462
-0.00703281
-0.00758487
-0.00836713
-0.00950342
-0.0111529
-0.0136033
-0.0169119
-0.0208741
-0.023966
-0.0245807
-0.0198145
-0.00753635
0.0324136
-0.00799778
-0.0101379
-0.00849745
-0.00751014
-0.00703958
-0.00688888
-0.00694428
-0.00715128
-0.00756706
-0.00819541
-0.009194
-0.0106503
-0.0128828
-0.0157416
-0.0190611
-0.0208335
-0.0185888
-0.00443576
0.0301043
0.100295
-0.0262921
-0.0105745
-0.00571952
-0.00492031
-0.00484884
-0.00487217
-0.00508184
-0.00544678
-0.00604932
-0.00683064
-0.00801111
-0.00961926
-0.0119743
-0.0147799
-0.0173146
-0.0163428
-0.00605352
0.0253002
0.0929784
0.199745
8.30201e-05
6.5754e-05
0.000104293
0.00019184
0.000328514
0.000516116
0.000756964
0.00105363
0.00140807
0.00182047
0.00228796
0.00280289
0.00335108
0.00391004
0.00444833
0.00492704
0.00530527
0.00555128
0.00565369
0.00561129
0.000103236
8.50343e-05
0.000128306
0.000217391
0.000352302
0.000536044
0.000771527
0.00106167
0.00140875
0.00181342
0.00227341
0.00278181
0.00332561
0.003883
0.0044225
0.00490418
0.0052853
0.0055335
0.00563763
0.00558867
6.0167e-05
3.53573e-05
7.74249e-05
0.000164265
0.000295276
0.00047404
0.000704138
0.00098941
0.00133334
0.00173816
0.00220353
0.00272463
0.00329015
0.00387857
0.0044562
0.00497705
0.00538885
0.00565022
0.00574707
0.00566913
-4.63277e-05
-7.67541e-05
-3.78287e-05
4.45608e-05
0.00016962
0.000341569
0.000564928
0.000844927
0.00118697
0.0015958
0.00207414
0.00262048
0.0032264
0.00387168
0.0045189
0.00511183
0.00558094
0.0058671
0.00595077
0.00582692
-0.000219242
-0.000254188
-0.000219616
-0.000143583
-2.67349e-05
0.000135931
0.000350109
0.000622784
0.000961852
0.00137546
0.00187073
0.00245125
0.00311317
0.00384049
0.00459199
0.0052973
0.00585899
0.00618544
0.00624426
0.00603999
-0.000458809
-0.000498354
-0.000469628
-0.000402303
-0.00029682
-0.000147388
5.29305e-05
0.000313051
0.000643744
0.00105733
0.0015668
0.00218301
0.00290904
0.00374143
0.00463607
0.00550693
0.006214
0.00660697
0.00662163
0.00626876
-0.000763336
-0.000808192
-0.000787171
-0.000731628
-0.000641973
-0.000511827
-0.000333227
-9.55214e-05
0.000214875
0.000614749
0.00112402
0.00176253
0.00253863
0.00349221
0.00456412
0.0056656
0.00659885
0.00710834
0.00705491
0.00643635
-0.00113025
-0.00118145
-0.00117031
-0.0011303
-0.0010622