/*--------------------------------*- C++ -*----------------------------------*\
  =========                 |
  \\      /  F ield         | OpenFOAM: The Open Source CFD Toolbox
   \\    /   O peration     | Website:  https://openfoam.org
    \\  /    A nd           | Version:  10
     \\/     M anipulation  |
\*---------------------------------------------------------------------------*/
FoamFile
{
    format      ascii;
    class       surfaceScalarField;
    location    "8";
    object      phi;
}
// * * * * * * * * * * * * * * * * * * * * * * * * * * * * * * * * * * * * * //

dimensions      [0 3 -1 0 0 0 0];

internalField   nonuniform List<scalar> 
22800
(
-2.52149e-06
3.19969e-06
-6.77954e-07
-8.13656e-06
5.93872e-06
-3.23658e-07
-1.49407e-05
6.88258e-06
-7.84361e-08
-2.2164e-05
7.19586e-06
2.74106e-08
-2.95431e-05
7.35427e-06
2.4863e-08
-3.69542e-05
7.47234e-06
-6.12508e-08
-4.42949e-05
7.53209e-06
-1.91434e-07
-5.13715e-05
7.48432e-06
-4.07744e-07
-5.79019e-05
7.25429e-06
-7.23828e-07
-6.34977e-05
6.75522e-06
-1.15943e-06
-6.76604e-05
5.89669e-06
-1.73402e-06
-6.9801e-05
4.60049e-06
-2.45985e-06
-6.92956e-05
2.82735e-06
-3.33278e-06
-6.55842e-05
6.06538e-07
-4.31795e-06
-5.82936e-05
-1.97584e-06
-5.31473e-06
-4.752e-05
-4.58743e-06
-6.18615e-06
-3.39982e-05
-6.79091e-06
-6.73087e-06
-1.93193e-05
-7.96437e-06
-6.71457e-06
-6.3305e-06
-7.17722e-06
-5.81155e-06
-3.15807e-06
-3.17243e-06
-5.08384e-06
1.01912e-05
-1.90766e-06
-1.46943e-05
1.73444e-05
-1.79522e-06
-2.60759e-05
1.98067e-05
-1.54254e-06
-3.80794e-05
2.06127e-05
-1.41342e-06
-5.02479e-05
2.08942e-05
-1.37137e-06
-6.23353e-05
2.09647e-05
-1.40491e-06
-7.41089e-05
2.08211e-05
-1.51545e-06
-8.52519e-05
2.03434e-05
-1.71607e-06
-9.53237e-05
1.93573e-05
-2.03128e-06
-0.000103737
1.76593e-05
-2.49064e-06
-0.000109755
1.50377e-05
-3.12272e-06
-0.000112521
1.13118e-05
-3.94566e-06
-0.000111131
6.39552e-06
-4.95824e-06
-0.000104853
4.79009e-07
-6.15066e-06
-9.30426e-05
-6.46132e-06
-7.3245e-06
-7.59386e-05
-1.33337e-05
-8.35777e-06
-5.46549e-05
-1.91062e-05
-8.96842e-06
-3.15978e-05
-2.21849e-05
-8.83657e-06
-1.0957e-05
-2.03518e-05
-7.46621e-06
-1.04373e-05
-3.67778e-06
-6.04519e-06
1.89039e-05
-2.66757e-06
-1.72343e-05
3.13118e-05
-2.77831e-06
-3.03402e-05
3.5482e-05
-2.56935e-06
-4.4088e-05
3.67922e-05
-2.43159e-06
-5.79884e-05
3.71434e-05
-2.34876e-06
-7.17774e-05
3.70802e-05
-2.32653e-06
-8.52053e-05
3.66226e-05
-2.37359e-06
-9.79395e-05
3.55911e-05
-2.51348e-06
-0.000109515
3.37134e-05
-2.78101e-06
-0.000119299
3.06612e-05
-3.2174e-06
-0.00012648
2.60838e-05
-3.8654e-06
-0.000130075
1.96675e-05
-4.7606e-06
-0.000129002
1.12389e-05
-5.91657e-06
-0.000122248
1.03418e-06
-7.3085e-06
-0.000109015
-1.0935e-05
-8.75932e-06
-8.93319e-05
-2.2958e-05
-1.00591e-05
-6.44099e-05
-3.31901e-05
-1.08381e-05
-3.71364e-05
-3.87933e-05
-1.06651e-05
-1.2691e-05
-3.58936e-05
-8.90361e-06
-1.8948e-05
-4.18032e-06
-6.28636e-06
2.83779e-05
-3.18761e-06
-1.80538e-05
4.65355e-05
-3.45627e-06
-3.18233e-05
5.25284e-05
-3.27677e-06
-4.6266e-05
5.43677e-05
-3.13283e-06
-6.09134e-05
5.48201e-05
-3.02932e-06
-7.55385e-05
5.4689e-05
-2.98375e-06
-8.99333e-05
5.40296e-05
-3.01221e-06
-0.000103807
5.26128e-05
-3.14756e-06
-0.000116728
5.00706e-05
-3.43684e-06
-0.000128068
4.59394e-05
-3.93773e-06
-0.000136967
3.96965e-05
-4.71394e-06
-0.000142307
3.08316e-05
-5.82428e-06
-0.00014275
1.89876e-05
-7.3059e-06
-0.000136865
4.29544e-06
-9.14599e-06
-0.000123444
-1.31852e-05
-1.11707e-05
-0.000102027
-3.13481e-05
-1.30275e-05
-7.37814e-05
-4.7236e-05
-1.41993e-05
-4.22049e-05
-5.63315e-05
-1.40383e-05
-1.39351e-05
-5.24858e-05
-1.16775e-05
-2.74394e-05
-5.44372e-06
-6.25508e-06
3.82267e-05
-3.59369e-06
-1.81948e-05
6.24868e-05
-4.01149e-06
-3.22317e-05
7.04299e-05
-3.86459e-06
-4.70137e-05
7.28761e-05
-3.72645e-06
-6.21126e-05
7.35443e-05
-3.62537e-06
-7.73662e-05
7.35333e-05
-3.59064e-06
-9.26448e-05
7.29554e-05
-3.64725e-06
-0.000107742
7.15494e-05
-3.83945e-06
-0.000122302
6.88611e-05
-4.2303e-06
-0.000135747
6.42844e-05
-4.90048e-06
-0.000147189
5.70847e-05
-5.94562e-06
-0.000155362
4.64667e-05
-7.46285e-06
-0.00015858
3.17369e-05
-9.5305e-06
-0.000154803
1.26913e-05
-1.21738e-05
-0.000142173
-1.05607e-05
-1.52544e-05
-0.000119214
-3.6158e-05
-1.81493e-05
-8.68295e-05
-5.95081e-05
-2.01119e-05
-4.9288e-05
-7.38145e-05
-2.00586e-05
-1.55509e-05
-6.95634e-05
-1.66595e-05
-3.52469e-05
-7.74344e-06
-6.10825e-06
4.82974e-05
-3.96249e-06
-1.80549e-05
7.89639e-05
-4.53048e-06
-3.22021e-05
8.89981e-05
-4.42104e-06
-4.71849e-05
9.21581e-05
-4.29909e-06
-6.26242e-05
9.32017e-05
-4.21808e-06
-7.84427e-05
9.35722e-05
-4.22048e-06
-9.462e-05
9.34759e-05
-4.34325e-06
-0.000111077
9.26527e-05
-4.64625e-06
-0.000127592
9.05914e-05
-5.21509e-06
-0.000143701
8.65573e-05
-6.1646e-06
-0.00015856
7.95854e-05
-7.64169e-06
-0.000170787
6.85112e-05
-9.81683e-06
-0.000178307
5.21114e-05
-1.28545e-05
-0.000178261
2.94698e-05
-1.68249e-05
-0.000168038
1.04385e-06
-2.18278e-05
-0.000144033
-3.35305e-05
-2.66324e-05
-0.000106504
-6.6798e-05
-3.02384e-05
-6.03382e-05
-8.93549e-05
-3.06257e-05
-1.80815e-05
-8.63913e-05
-2.54288e-05
-4.17348e-05
-1.15936e-05
-5.88697e-06
5.85319e-05
-4.34751e-06
-1.77458e-05
9.59015e-05
-5.07874e-06
-3.18991e-05
0.000108162
-5.01024e-06
-4.69632e-05
0.00011213
-4.90755e-06
-6.26115e-05
0.000113702
-4.85246e-06
-7.88675e-05
0.000114732
-4.90361e-06
-9.58497e-05
0.000115572
-5.11413e-06
-0.000113654
0.000116023
-5.56559e-06
-0.000132266
0.000115579
-6.37588e-06
-0.000151436
0.000113438
-7.71081e-06
-0.0001705
0.000108448
-9.79894e-06
-0.000188113
9.90621e-05
-1.29375e-05
-0.000201942
8.33912e-05
-1.74514e-05
-0.000208421
5.95103e-05
-2.35614e-05
-0.000202526
2.65714e-05
-3.14223e-05
-0.00017979
-1.59672e-05
-4.02993e-05
-0.000136941
-6.22374e-05
-4.74095e-05
-7.87839e-05
-9.82964e-05
-4.92154e-05
-2.28275e-05
-0.000101261
-4.10863e-05
-4.64901e-05
-1.80722e-05
-5.59925e-06
6.89149e-05
-4.78375e-06
-1.72877e-05
0.000113292
-5.70223e-06
-3.13277e-05
0.000127876
-5.67434e-06
-4.62976e-05
0.000132683
-5.58339e-06
-6.19198e-05
0.00013487
-5.54495e-06
-7.8328e-05
0.000136778
-5.63816e-06
-9.58029e-05
0.000138985
-5.93745e-06
-0.000114661
0.000141434
-6.55327e-06
-0.000135171
0.000143737
-7.64803e-06
-0.000157437
0.000145165
-9.4611e-06
-0.000181175
0.000144532
-1.23454e-05
-0.000205364
0.000140054
-1.68025e-05
-0.000227729
0.000129225
-2.34695e-05
-0.00024407
0.000108873
-3.30227e-05
-0.000247548
7.57495e-05
-4.57001e-05
-0.000230869
2.89216e-05
-6.15672e-05
-0.000185335
-3.2204e-05
-7.55673e-05
-0.000112292
-9.0311e-05
-8.10283e-05
-3.38954e-05
-0.000110659
-6.89998e-05
-5.06647e-05
-2.97208e-05
-5.26344e-06
7.9478e-05
-5.29964e-06
-1.67132e-05
0.000131181
-6.43873e-06
-3.04972e-05
0.000148105
-6.44516e-06
-4.51215e-05
0.000153653
-6.34517e-06
-6.03463e-05
0.00015639
-6.29585e-06
-7.64141e-05
0.000159248
-6.40217e-06
-9.37752e-05
0.000163111
-6.76514e-06
-0.00011299
0.000168179
-7.53101e-06
-0.000134673
0.00017434
-8.9189e-06
-0.000159406
0.000181163
-1.1266e-05
-0.000187535
0.000187759
-1.50984e-05
-0.000218798
0.000192536
-2.12194e-05
-0.000251662
0.000192861
-3.07715e-05
-0.000282286
0.000184601
-4.5103e-05
-0.000303114
0.000161647
-6.50695e-05
-0.000300827
0.000116487
-8.98516e-05
-0.000262919
4.50821e-05
-0.000115195
-0.00017684
-4.87882e-05
-0.000127602
-6.27962e-05
-0.000111286
-0.000113417
-6.01883e-05
-5.32726e-05
-4.93877e-06
9.0347e-05
-5.93026e-06
-1.6138e-05
0.000149713
-7.3332e-06
-2.95249e-05
0.000168851
-7.35952e-06
-4.34847e-05
0.000174826
-7.21361e-06
-5.77996e-05
0.000177809
-7.10369e-06
-7.28077e-05
0.000181423
-7.16695e-06
-8.9108e-05
0.000186946
-7.53526e-06
-0.000107483
0.000194949
-8.39475e-06
-0.00012889
0.000205775
-1.00283e-05
-0.00015444
0.0002196
-1.28869e-05
-0.000185298
0.00023632
-1.77018e-05
-0.000222419
0.000255283
-2.56265e-05
-0.000265999
0.000274756
-3.83154e-05
-0.000314378
0.000290651
-5.76715e-05
-0.00036155
0.000293558
-8.47389e-05
-0.000393027
0.000264637
-0.000116673
-0.000380544
0.000179333
-0.000146735
-0.000296825
3.23151e-05
-0.000164822
-0.000133621
-0.000115505
-0.000158983
-9.46476e-05
-9.91622e-05
-4.75806e-06
0.000101837
-6.73176e-06
-1.58295e-05
0.000169239
-8.45431e-06
-2.87286e-05
0.000190225
-8.47494e-06
-4.1664e-05
0.000195988
-8.22632e-06
-5.44345e-05
0.000198559
-7.97979e-06
-6.74526e-05
0.000202353
-7.91189e-06
-8.14109e-05
0.000209092
-8.18767e-06
-9.72219e-05
0.000219791
-9.03077e-06
-0.000116064
0.000235399
-1.07814e-05
-0.000139457
0.000256983
-1.39893e-05
-0.000169337
0.000285745
-1.95462e-05
-0.000208101
0.000322841
-2.8793e-05
-0.000258632
0.000368591
-4.33043e-05
-0.000323881
0.000419685
-6.37842e-05
-0.000404124
0.000461635
-8.78339e-05
-0.000488071
0.00045662
-0.000108036
-0.000539567
0.000345426
-0.000114598
-0.000486516
9.56868e-05
-0.000116423
-0.000272626
-0.000185637
-0.000143758
-0.000209724
-0.00015755
-4.97649e-06
0.000114616
-7.80283e-06
-1.62969e-05
0.000190479
-9.9198e-06
-2.87314e-05
0.000212554
-9.89428e-06
-4.02751e-05
0.000216991
-9.46028e-06
-5.07814e-05
0.000218034
-8.96927e-06
-6.07306e-05
0.000220949
-8.64683e-06
-7.08233e-05
0.000227876
-8.69096e-06
-8.19298e-05
0.000240248
-9.35062e-06
-9.51789e-05
0.000259641
-1.09935e-05
-0.000112119
0.000288119
-1.41953e-05
-0.000135003
0.000328426
-1.97968e-05
-0.000167348
0.000383879
-2.86926e-05
-0.000215157
0.000456873
-4.04726e-05
-0.000288586
0.000543122
-5.00087e-05
-0.000400741
0.000618051
-4.42615e-05
-0.000554524
0.000617563
-7.15914e-06
-0.00070678
0.000438997
5.86855e-05
-0.000720039
2.07338e-05
8.82123e-05
-0.000447433
-0.000468553
1.03088e-05
-0.000502956
-0.000154201
-6.05361e-06
0.000129989
-9.31883e-06
-1.84276e-05
0.000214771
-1.19182e-05
-3.05952e-05
0.000236495
-1.17736e-05
-4.03828e-05
0.000237821
-1.1042e-05
-4.78556e-05
0.000235676
-1.01689e-05
-5.36104e-05
0.000236142
-9.43802e-06
-5.82654e-05
0.000241611
-9.07971e-06
-6.24184e-05
0.000253749
-9.34809e-06
-6.67563e-05
0.000274563
-1.05836e-05
-7.22481e-05
0.000306855
-1.32448e-05
-8.06325e-05
0.000354529
-1.77182e-05
-9.57348e-05
0.000422308
-2.33269e-05
-0.000126828
0.000512897
-2.49311e-05
-0.000195041
0.000617815
-6.47963e-06
-0.000338097
0.000700927
6.01802e-05
-0.000590521
0.000675952
0.000194034
-0.000884293
0.000380822
0.000351947
-0.000953052
-0.000306942
0.000396434
-0.000596838
-0.00105439
0.00022962
-0.00104981
-4.99855e-05
-8.85094e-06
0.000150495
-1.16551e-05
-2.37401e-05
0.000244583
-1.49224e-05
-3.5979e-05
0.000263302
-1.45676e-05
-4.3566e-05
0.000258743
-1.33348e-05
-4.71846e-05
0.000251137
-1.18419e-05
-4.76944e-05
0.000247131
-1.04792e-05
-4.55668e-05
0.000248996
-9.51246e-06
-4.0899e-05
0.000258257
-9.17621e-06
-3.35472e-05
0.000276936
-9.72487e-06
-2.32761e-05
0.000307933
-1.13491e-05
-1.0464e-05
0.000355327
-1.36102e-05
9.77742e-07
0.000424369
-1.35033e-05
-2.88581e-06
0.000516687
7.29212e-08
-6.02997e-05
0.000620659
5.45705e-05
-0.00024421
0.000696026
0.000188811
-0.000621795
0.000641123
0.000412414
-0.00105243
0.000183731
0.000627725
-0.00113265
-0.000851994
0.000625276
-0.000738032
-0.00179858
0.000349574
-0.00179467
6.83254e-06
-1.48564e-05
0.000180659
-1.53077e-05
-3.47608e-05
0.000283633
-1.91458e-05
-4.75271e-05
0.000294263
-1.81944e-05
-5.21449e-05
0.000279688
-1.63277e-05
-5.08555e-05
0.000263943
-1.40956e-05
-4.51441e-05
0.000253361
-1.19412e-05
-3.53298e-05
0.000249385
-1.02032e-05
-2.08223e-05
0.000252877
-9.12686e-06
-2.79343e-07
0.000265293
-8.9004e-06
2.80788e-05
0.000288938
-9.3632e-06
6.44518e-05
0.000328105
-9.15155e-06
0.000106597
0.00038599
-3.76618e-06
0.000137508
0.000464029
2.17474e-05
0.000101471
0.000554144
0.000102552
-0.000104587
0.000621647
0.000280437
-0.000549228
0.000540758
0.000545006
-0.00102754
-8.53536e-05
0.000747395
-0.00116869
-0.00134172
0.000630873
-0.00084411
-0.00240925
0.000286092
-0.00256309
-7.56893e-05
-2.77423e-05
0.000230461
-2.20604e-05
-5.63084e-05
0.000339912
-2.77134e-05
-6.84692e-05
0.000332847
-2.64239e-05
-6.81283e-05
0.000302192
-2.28441e-05
-6.04987e-05
0.000274981
-1.86676e-05
-4.77257e-05
0.000255433
-1.48452e-05
-2.9877e-05
0.00024333
-1.17937e-05
-5.62395e-06
0.000238345
-9.72116e-06
2.75004e-05
0.000240838
-8.6687e-06
7.19604e-05
0.000252671
-8.19293e-06
0.000131022
0.000276086
-7.04227e-06
0.000203718
0.000312882
4.11915e-07
0.00027615
0.000364392
2.72043e-05
0.000296336
0.000424654
0.000109304
0.000158336
0.000474368
0.00028528
-0.000208464
0.000375561
0.000531996
-0.000683804
-0.000282084
0.00067207
-0.000977987
-0.00154926
0.000501725
-0.000833766
-0.00275048
0.000197011
-0.00318138
-0.000215479
-4.98997e-05
0.000318218
-3.78568e-05
-9.55364e-05
0.000425153
-3.96042e-05
-0.000106367
0.00037681
-3.31324e-05
-9.62571e-05
0.000320309
-2.82267e-05
-7.7857e-05
0.00027944
-2.2859e-05
-5.4815e-05
0.000249995
-1.76043e-05
-2.68415e-05
0.000228626
-1.32702e-05
8.4324e-06
0.000213403
-1.03327e-05
5.28466e-05
0.000205111
-8.68757e-06
0.000111476
0.000202682
-8.64013e-06
0.000187924
0.000208296
-8.65773e-06
0.000284063
0.00022095
-4.20737e-06
0.000391504
0.000242129
1.48223e-05
0.000478631
0.000262624
7.49028e-05
0.000470106
0.000273646
0.000209246
0.000264132
0.000182757
0.000398779
-0.000158189
-0.000354088
0.000494326
-0.000611069
-0.00146915
0.000372773
-0.000712725
-0.0027772
0.000128374
-0.0035292
-0.000364904
-0.000107595
0.000471646
-4.58332e-05
-0.000165662
0.000546647
-6.34267e-05
-0.000154183
0.000429741
-6.44099e-05
-0.000118858
0.000338377
-5.33929e-05
-7.52701e-05
0.000275604
-3.97517e-05
-2.70014e-05
0.000229739
-2.80128e-05
2.53211e-05
0.000195818
-1.9514e-05
8.29253e-05
0.000169927
-1.41282e-05
0.000147332
0.000152351
-1.16469e-05
0.000223529
0.000139381
-1.28959e-05
0.000313849
0.000133499
-1.55234e-05
0.000423093
0.000129386
-1.76797e-05
0.000544789
0.000131038
-1.06052e-05
0.000665057
0.000124485
1.78703e-05
0.000738532
0.000106479
9.36927e-05
0.000684328
2.3194e-05
0.000213767
0.000370729
-0.000331749
0.00029126
-0.000162716
-0.00119398
0.000258273
-0.000474552
-0.00246897
3.60916e-06
-0.00348188
-0.000521869
-0.00045319
0.00109479
-0.000169957
-0.000337938
0.000553036
-0.00012164
-0.000116007
0.000309208
-0.000101398
8.15927e-05
0.000220606
-7.98291e-05
0.000251039
0.000167178
-6.10206e-05
0.000400127
0.000126698
-4.60461e-05
0.000533131
9.79748e-05
-3.51601e-05
0.000654816
7.65447e-05
-2.83023e-05
0.00076808
6.33368e-05
-2.425e-05
0.000879291
5.24582e-05
-2.42875e-05
0.000991389
4.8325e-05
-2.6924e-05
0.00111062
4.35123e-05
-3.33617e-05
0.00123217
4.55884e-05
-3.6092e-05
0.00135013
3.968e-05
-3.31569e-05
0.00143834
2.55217e-05
-7.24978e-06
0.00145651
-3.55008e-05
4.05235e-05
0.00129616
-0.000267267
9.58691e-05
0.00083272
-0.000828982
9.84362e-05
0.000223547
-0.00178322
-7.65814e-05
-0.00259594
-0.000662399
0.00126664
-0.000171845
0.00198246
-0.000162782
0.00244342
-0.000151752
0.00280187
-0.000137851
0.00309052
-0.000121467
0.00332481
-0.00010759
0.00351695
-9.41666e-05
0.00367896
-8.54685e-05
0.00381805
-7.57514e-05
0.00394283
-7.232e-05
0.00405703
-6.58776e-05
0.00416848
-6.79364e-05
0.00427626
-6.21939e-05
0.00438144
-6.54948e-05
0.00445532
-4.83633e-05
0.00446494
-4.51165e-05
0.00421877
-2.1101e-05
0.00345518
-6.53887e-05
0.00181735
-0.000145391
-0.000778591
-4.38604e-06
5.12421e-06
-1.41613e-06
-1.40784e-05
1.07632e-05
-1.39456e-06
-2.57964e-05
1.27881e-05
-1.14846e-06
-3.8054e-05
1.33196e-05
-1.03459e-06
-5.03679e-05
1.33971e-05
-1.05835e-06
-6.25376e-05
1.33121e-05
-1.20371e-06
-7.4339e-05
1.30769e-05
-1.46692e-06
-8.5472e-05
1.25956e-05
-1.87037e-06
-9.54983e-05
1.17429e-05
-2.44044e-06
-0.000103828
1.03777e-05
-3.20712e-06
-0.000109724
8.35774e-06
-4.19561e-06
-0.000112336
5.56714e-06
-5.41546e-06
-0.000110778
1.95553e-06
-6.84621e-06
-0.000104253
-2.42983e-06
-8.4131e-06
-9.22846e-05
-7.31293e-06
-9.97015e-06
-7.5017e-05
-1.2151e-05
-1.13028e-05
-5.35477e-05
-1.60714e-05
-1.21287e-05
-3.03484e-05
-1.77727e-05
-1.21412e-05
-9.97608e-06
-1.52699e-05
-1.0914e-05
-6.19926e-06
-6.94928e-06
-1.02525e-05
1.64228e-05
-2.95385e-06
-2.87785e-05
3.09702e-05
-3.47611e-06
-5.04693e-05
3.62103e-05
-3.274e-06
-7.30295e-05
3.75753e-05
-3.109e-06
-9.54841e-05
3.75514e-05
-3.07102e-06
-0.000117317
3.69158e-05
-3.1753e-06
-0.000138056
3.57365e-05
-3.4361e-06
-0.000157117
3.38265e-05
-3.88633e-06
-0.000173739
3.09044e-05
-4.57016e-06
-0.000186964
2.66462e-05
-5.53499e-06
-0.000195637
2.07287e-05
-6.82051e-06
-0.000198468
1.28986e-05
-8.44532e-06
-0.000194207
3.12538e-06
-1.03898e-05
-0.000181653
-8.59926e-06
-1.25351e-05
-0.000160219
-2.13962e-05
-1.4675e-05
-0.000130271
-3.3953e-05
-1.65043e-05
-9.36519e-05
-4.40541e-05
-1.76044e-05
-5.43425e-05
-4.84132e-05
-1.75055e-05
-1.9276e-05
-4.23222e-05
-1.54804e-05
-1.99132e-05
-9.23983e-06
-1.28719e-05
3.05939e-05
-3.96676e-06
-3.54429e-05
5.56532e-05
-4.89032e-06
-6.15097e-05
6.44615e-05
-4.75372e-06
-8.84391e-05
6.66356e-05
-4.56249e-06
-0.000115116
6.63451e-05
-4.46594e-06
-0.000140939
6.49179e-05
-4.50492e-06
-0.00016537
6.2502e-05
-4.70829e-06
-0.000187757
5.88229e-05
-5.12295e-06
-0.000207264
5.3441e-05
-5.81046e-06
-0.000222833
4.58364e-05
-6.83874e-06
-0.000233174
3.54747e-05
-8.27037e-06
-0.000236804
2.19148e-05
-1.01471e-05
-0.00023217
5.04038e-06
-1.24652e-05
-0.000217788
-1.51868e-05
-1.51037e-05
-0.000192739
-3.73871e-05
-1.78173e-05
-0.000157204
-5.93531e-05
-2.01938e-05
-0.000113234
-7.7208e-05
-2.16544e-05
-6.5663e-05
-8.51183e-05
-2.15307e-05
-2.31338e-05
-7.48981e-05
-1.88569e-05
-3.63041e-05
-1.09233e-05
-1.38483e-05
4.59997e-05
-4.74508e-06
-3.82163e-05
8.25548e-05
-5.9899e-06
-6.6273e-05
9.51513e-05
-5.90986e-06
-9.52098e-05
9.81457e-05
-5.70616e-06
-0.000123907
9.75914e-05
-5.57861e-06
-0.000151803
9.54195e-05
-5.58942e-06
-0.000178407
9.18762e-05
-5.7823e-06
-0.000203116
8.66062e-05
-6.222e-06
-0.000225125
7.90072e-05
-6.99366e-06
-0.000243364
6.83337e-05
-8.19593e-06
-0.000256447
5.37726e-05
-9.92932e-06
-0.00026266
3.45794e-05
-1.22754e-05
-0.000260053
1.03869e-05
-1.52599e-05
-0.000246521
-1.90394e-05
-1.88249e-05
-0.000220396
-5.20659e-05
-2.26174e-05
-0.000181208
-8.55007e-05
-2.60674e-05
-0.00013093
-0.00011338
-2.8305e-05
-7.54364e-05
-0.000126379
-2.82714e-05
-2.58682e-05
-0.000111554
-2.45896e-05
-5.36705e-05
-1.39455e-05
-1.42086e-05
6.20305e-05
-5.4158e-06
-3.94774e-05
0.000110779
-6.96637e-06
-6.86395e-05
0.000127398
-6.94876e-06
-9.8789e-05
0.00013132
-6.75147e-06
-0.000128854
0.000130656
-6.62546e-06
-0.000158373
0.000128003
-6.65512e-06
-0.000186977
0.000123735
-6.90227e-06
-0.000214187
0.000117432
-7.45511e-06
-0.000239307
0.000108328
-8.4314e-06
-0.000261314
9.54152e-05
-9.97531e-06
-0.000278748
7.75097e-05
-1.22485e-05
-0.000289617
5.33833e-05
-1.5398e-05
-0.000291389
2.21159e-05
-1.9487e-05
-0.000281047
-1.68724e-05
-2.46833e-05
-0.000255563
-6.24e-05
-3.0404e-05
-0.000213132
-0.000110228
-3.58532e-05
-0.000155154
-0.000151831
-3.96394e-05
-8.88161e-05
-0.000172869
-3.99057e-05
-2.93346e-05
-0.000153267
-3.44279e-05
-7.17738e-05
-1.89748e-05
-1.43728e-05
7.85063e-05
-6.06551e-06
-4.0263e-05
0.000140071
-7.9325e-06
-7.02735e-05
0.000160973
-7.98596e-06
-0.000101428
0.000165986
-7.80971e-06
-0.000132729
0.000165448
-7.70938e-06
-0.000163858
0.000162706
-7.79448e-06
-0.000194626
0.00015831
-8.15009e-06
-0.000224759
0.000151815
-8.89588e-06
-0.00025376
0.000142309
-1.01953e-05
-0.00028076
0.000128511
-1.22604e-05
-0.000304321
0.00010878
-1.53512e-05
-0.000322209
8.12047e-05
-1.97499e-05
-0.00033115
4.39401e-05
-2.57387e-05
-0.000327096
-4.30427e-06
-3.34464e-05
-0.000304798
-6.40702e-05
-4.24561e-05
-0.000260006
-0.000130082
-5.157e-05
-0.000192343
-0.000191298
-5.84347e-05
-0.000110031
-0.000226253
-5.95533e-05
-3.47544e-05
-0.000203096
-5.0877e-05
-9.13203e-05
-2.68014e-05
-1.44783e-05
9.54007e-05
-6.76355e-06
-4.09252e-05
0.000170418
-8.97942e-06
-7.17164e-05
0.000195864
-9.11021e-06
-0.0001038
0.00020212
-8.95774e-06
-0.000136264
0.000201949
-8.88889e-06
-0.000168972
0.000199554
-9.04312e-06
-0.000201979
0.000195738
-9.53532e-06
-0.000235305
0.000190102
-1.05267e-05
-0.000268788
0.00018166
-1.22435e-05
-0.000301886
0.000168894
-1.49965e-05
-0.000333396
0.00014969
-1.91988e-05
-0.000361066
0.000121302
-2.53644e-05
-0.000381042
8.05376e-05
-3.40728e-05
-0.000388
2.48015e-05
-4.57097e-05
-0.00037392
-4.93051e-05
-6.02668e-05
-0.000330408
-0.00013789
-7.60041e-05
-0.000252454
-0.000227869
-8.87923e-05
-0.000147074
-0.000288866
-9.19819e-05
-4.50138e-05
-0.00026834
-7.79025e-05
-0.000115796
-3.861e-05
-1.45619e-05
0.000112743
-7.56422e-06
-4.15563e-05
0.000201892
-1.01813e-05
-7.30736e-05
0.000232097
-1.03897e-05
-0.000105954
0.000239663
-1.02466e-05
-0.000139378
0.000240018
-1.01906e-05
-0.000173421
0.000238355
-1.03973e-05
-0.00020844
0.000235839
-1.10184e-05
-0.000244858
0.000232234
-1.22672e-05
-0.000283012
0.000226617
-1.4452e-05
-0.000322946
0.000217387
-1.80192e-05
-0.00036407
0.000202077
-2.36086e-05
-0.000404605
0.000177136
-3.21017e-05
-0.000440813
0.000137818
-4.45419e-05
-0.000465904
7.86896e-05
-6.18203e-05
-0.000470324
-5.27506e-06
-8.531e-05
-0.000438235
-0.000119867
-0.000111679
-0.000355054
-0.000252522
-0.000134095
-0.000219028
-0.000365239
-0.000140681
-6.91578e-05
-0.000368305
-0.000118906
-0.000158541
-5.61335e-05
-1.46558e-05
0.000130618
-8.51914e-06
-4.22159e-05
0.000234622
-1.1609e-05
-7.43711e-05
0.000269693
-1.18858e-05
-0.000107799
0.000278462
-1.17163e-05
-0.000141765
0.000279313
-1.16249e-05
-0.000176576
0.000278594
-1.183e-05
-0.000212942
0.000277966
-1.25261e-05
-0.000251777
0.000277525
-1.39867e-05
-0.000294094
0.000276633
-1.66177e-05
-0.000340839
0.000273902
-2.10354e-05
-0.000392571
0.000266891
-2.818e-05
-0.000448878
0.000251663
-3.94388e-05
-0.000507435
0.000222264
-5.66611e-05
-0.000562132
0.000170151
-8.18676e-05
-0.000601409
8.42747e-05
-0.000115343
-0.000603393
-5.35421e-05
-0.000154191
-0.000533854
-0.000252641
-0.000184615
-0.0003651
-0.000470545
-0.00019105
-0.000130842
-0.000551826
-0.000164153
-0.000261016
-8.16401e-05
-1.48441e-05
0.000149226
-9.69409e-06
-4.30619e-05
0.000268857
-1.33504e-05
-7.57508e-05
0.000308696
-1.36738e-05
-0.000109349
0.000318263
-1.34159e-05
-0.000143193
0.000319258
-1.32051e-05
-0.000177824
0.000319368
-1.33096e-05
-0.000214318
0.000320894
-1.39696e-05
-0.000254125
0.000324457
-1.55192e-05
-0.000299057
0.00033
-1.8464e-05
-0.000351255
0.000336812
-2.36001e-05
-0.000413044
0.000343171
-3.21924e-05
-0.000486564
0.000345721
-4.61653e-05
-0.000572995
0.000338396
-6.80169e-05
-0.000670668
0.000309734
-9.95804e-05
-0.000768633
0.00023615
-0.00013865
-0.000839744
7.56847e-05
-0.000174788
-0.000819449
-0.000232002
-0.000187669
-0.000630438
-0.000646526
-0.000177852
-0.000268881
-0.000902987
-0.000169379
-0.000514145
-0.000114915
-1.53144e-05
0.000168999
-1.11896e-05
-4.44574e-05
0.000305081
-1.55349e-05
-7.76166e-05
0.000349245
-1.58654e-05
-0.000110902
0.000358747
-1.54252e-05
-0.000143714
0.000359061
-1.49699e-05
-0.000176819
0.000359384
-1.48237e-05
-0.000211615
0.000362773
-1.52704e-05
-0.000250036
0.00037054
-1.66927e-05
-0.000294671
0.000383522
-1.9668e-05
-0.000348963
0.000402231
-2.5116e-05
-0.000417438
0.000426589
-3.44894e-05
-0.000505897
0.000455186
-4.97991e-05
-0.000621289
0.000483105
-7.26211e-05
-0.000769419
0.000494571
-0.000100491
-0.000945183
0.000444129
-0.000120049
-0.00110942
0.000236369
-0.000104482
-0.00117003
-0.000240248
-4.57404e-05
-0.000981861
-0.000939947
-1.11729e-05
-0.000487372
-0.00146117
-8.00594e-05
-0.00102397
-0.000135097
-1.64276e-05
0.000190794
-1.31711e-05
-4.70982e-05
0.000344202
-1.83707e-05
-8.07843e-05
0.000391682
-1.86453e-05
-0.000113202
0.000399593
-1.78886e-05
-0.00014386
0.000397764
-1.70145e-05
-0.000173736
0.000397025
-1.64125e-05
-0.000204451
0.0004012
-1.64031e-05
-0.000238224
0.000412351
-1.73876e-05
-0.000278146
0.000432395
-1.9945e-05
-0.00032865
0.000463488
-2.49479e-05
-0.000396213
0.000507935
-3.35797e-05
-0.000490255
0.000567121
-4.65857e-05
-0.000623639
0.000636755
-6.07385e-05
-0.000809395
0.000691097
-6.07795e-05
-0.0010473
0.000651577
-1.38033e-05
-0.00129258
0.000364316
0.000110174
-0.00142598
-0.000322303
0.000274143
-0.00125443
-0.00131737
0.000294084
-0.000685717
-0.00210708
8.74968e-05
-0.00177473
-8.91603e-05
-1.88132e-05
0.0002162
-1.59114e-05
-5.21821e-05
0.000387824
-2.21715e-05
-8.66711e-05
0.000436677
-2.22797e-05
-0.000117618
0.000440525
-2.10274e-05
-0.000144825
0.000434318
-1.95159e-05
-0.000169532
0.0004305
-1.82064e-05
-0.000193432
0.000433468
-1.74488e-05
-0.000218677
0.00044587
-1.76225e-05
-0.000248263
0.000470595
-1.91982e-05
-0.000286701
0.000511396
-2.27135e-05
-0.000341032
0.00057285
-2.83023e-05
-0.000422256
0.000658447
-3.34287e-05
-0.000546528
0.000761878
-2.57828e-05
-0.000731492
0.000843268
2.63134e-05
-0.000986362
0.000791756
0.000174872
-0.00128208
0.000423335
0.000430729
-0.0014801
-0.00042617
0.000653838
-0.00133198
-0.00165092
0.000581859
-0.000764259
-0.00266788
0.000222709
-0.00257988
-9.08793e-06
-2.3668e-05
0.00024814
-1.99274e-05
-6.17458e-05
0.000438591
-2.76115e-05
-9.74229e-05
0.000485209
-2.74216e-05
-0.000126145
0.000481289
-2.53762e-05
-0.000148488
0.000467699
-2.28802e-05
-0.000166066
0.00045812
-2.05201e-05
-0.000180479
0.000457045
-1.86762e-05
-0.000193368
0.000467249
-1.76656e-05
-0.000206852
0.000492101
-1.77465e-05
-0.000224232
0.000536293
-1.88663e-05
-0.000251138
0.000605686
-1.95402e-05
-0.000297571
0.000704398
-1.30215e-05
-0.000380703
0.000823735
2.13482e-05
-0.000527668
0.000913855
0.000130948
-0.00076711
0.000852931
0.000367078
-0.00109068
0.000455948
0.000703371
-0.00133919
-0.000460057
0.000910126
-0.00123749
-0.00180767
0.000680314
-0.000742663
-0.00302055
0.000207417
-0.00328526
-3.04493e-05
-3.26786e-05
0.000291404
-2.58926e-05
-7.89172e-05
0.000500803
-3.51194e-05
-0.000116798
0.000539047
-3.4152e-05
-0.000142215
0.000521455
-3.10768e-05
-0.000157846
0.000496607
-2.73718e-05
-0.00016629
0.000478309
-2.36864e-05
-0.00016898
0.000470005
-2.04743e-05
-0.000166606
0.000473772
-1.80238e-05
-0.000159689
0.000492673
-1.63893e-05
-0.000149169
0.000531337
-1.49279e-05
-0.000137736
0.000595827
-1.07254e-05
-0.000132174
0.000689723
5.34717e-06
-0.00015068
0.000804239
5.97488e-05
-0.000229114
0.00089317
0.00020167
-0.000414919
0.000843908
0.000475266
-0.000708173
0.000479782
0.000814426
-0.000958115
-0.000407371
0.00094465
-0.000957955
-0.00176392
0.000586972
-0.000631706
-0.00316932
0.000108612
-0.00382887
-0.000163793
-5.10957e-05
0.000356048
-3.56086e-05
-0.000109656
0.000579331
-4.76805e-05
-0.0001474
0.000596618
-4.62524e-05
-0.000167142
0.000559531
-4.11769e-05
-0.000174471
0.000520326
-3.50583e-05
-0.000172605
0.000490685
-2.90873e-05
-0.000162587
0.000472052
-2.38575e-05
-0.000143897
0.000464993
-1.96326e-05
-0.000115109
0.000471533
-1.63166e-05
-7.40815e-05
0.000495071
-1.29545e-05
-1.97637e-05
0.000540768
-6.30084e-06
4.64726e-05
0.000610686
1.32123e-05
0.000107793
0.000701138
6.89845e-05
0.000129142
0.000776767
0.000204359
4.9669e-05
0.000753812
0.000454848
-0.000133617
0.000459206
0.000735859
-0.00034815
-0.000321708
0.00080094
-0.000485627
-0.00156381
0.000439092
-0.00039584
-0.00310382
4.17251e-05
-0.00415284
-0.000287346
-8.20387e-05
0.000454191
-5.39616e-05
-0.000168734
0.000692378
-6.59558e-05
-0.000205668
0.000660094
-5.96741e-05
-0.000211532
0.00058944
-5.22717e-05
-0.000204433
0.000534425
-4.40575e-05
-0.000188986
0.000493402
-3.57689e-05
-0.000164623
0.000462794
-2.83752e-05
-0.000128854
0.000441309
-2.24176e-05
-7.88069e-05
0.000430743
-1.79446e-05
-9.52313e-06
0.000431263
-1.41156e-05
8.23241e-05
0.000448478
-8.21437e-06
0.000198356
0.000482847
7.60028e-06
0.000332791
0.000532925
4.86002e-05
0.000464237
0.000574581
0.000145643
0.000542045
0.000559548
0.000325703
0.000497701
0.000368385
0.000533945
0.000307588
-0.000201749
0.00056448
2.12097e-05
-0.00121103
0.000306372
-9.58915e-07
-0.00293433
-1.89434e-05
-0.00415565
-0.00036305
-9.42606e-05
0.00056894
-6.63206e-05
-0.000201325
0.000824519
-8.85039e-05
-0.000251751
0.000735833
-8.97224e-05
-0.000262457
0.0006259
-7.91469e-05
-0.000243813
0.000540499
-6.44697e-05
-0.000204457
0.000476538
-5.05041e-05
-0.000149014
0.00042679
-3.89538e-05
-7.82234e-05
0.000386827
-3.04359e-05
7.65236e-06
0.000358387
-2.51665e-05
0.000109615
0.000338189
-2.17845e-05
0.00023212
0.000330371
-1.99221e-05
0.00038155
0.000330067
-1.43299e-05
0.000554721
0.000343585
5.56385e-06
0.000741775
0.000349503
5.58935e-05
0.000910915
0.000331122
0.000152979
0.000992
0.000223407
0.000277659
0.000921853
-0.000140716
0.000300373
0.000718723
-0.000915734
0.000166104
0.000407533
-0.00254272
-7.68127e-05
-0.00384979
-0.000420199
-0.000772258
0.00132878
-0.000157542
-0.000712655
0.000796816
-0.000153539
-0.000480922
0.000538539
-0.000135838
-0.000252785
0.000435179
-0.000117245
-3.94769e-05
0.000365134
-9.89635e-05
0.000166088
0.000307511
-8.25845e-05
0.000362949
0.000263559
-6.87887e-05
0.000552299
0.000227913
-5.8739e-05
0.000734524
0.000203451
-5.15385e-05
0.000914312
0.000182363
-4.82502e-05
0.00109358
0.000171482
-4.73019e-05
0.00127812
0.000161659
-4.94965e-05
0.00146931
0.000162971
-4.66681e-05
0.00166352
0.000159379
-3.72397e-05
0.00185281
0.00014014
-5.55754e-06
0.00200358
7.79063e-05
3.52531e-05
0.00202543
-0.000136468
6.9777e-05
0.0018789
-0.000697041
2.62657e-05
0.00117221
-0.00179782
-0.000114792
-0.0028684
-0.000471574
0.0012991
-0.000142159
0.00209151
-0.000158379
0.00263446
-0.000156168
0.0030815
-0.000149708
0.00346465
-0.000139479
0.00379402
-0.000129455
0.00408121
-0.000117798
0.00433375
-0.00011009
0.00456155
-0.000100103
0.00476836
-9.67692e-05
0.00496256
-8.85968e-05
0.00514713
-9.08404e-05
0.00532992
-8.2018e-05
0.00551132
-8.75137e-05
0.00567282
-6.97257e-05
0.00578424
-7.86304e-05
0.00568253
-5.58539e-05
0.00502958
-0.000109483
0.00320286
-0.000116492
-0.000444132
-4.98234e-06
5.38636e-06
-1.82016e-06
-1.62502e-05
1.21114e-05
-2.23808e-06
-2.98356e-05
1.45932e-05
-2.15641e-06
-4.39562e-05
1.51879e-05
-2.10185e-06
-5.80302e-05
1.51781e-05
-2.16243e-06
-7.18224e-05
1.4941e-05
-2.35256e-06
-8.51005e-05
1.44959e-05
-2.68469e-06
-9.75285e-05
1.37416e-05
-3.18387e-06
-0.000108624
1.25366e-05