/*--------------------------------*- C++ -*----------------------------------*\
  =========                 |
  \\      /  F ield         | OpenFOAM: The Open Source CFD Toolbox
   \\    /   O peration     | Website:  https://openfoam.org
    \\  /    A nd           | Version:  10
     \\/     M anipulation  |
\*---------------------------------------------------------------------------*/
FoamFile
{
    format      ascii;
    class       volVectorField;
    location    "8";
    object      U;
}
// * * * * * * * * * * * * * * * * * * * * * * * * * * * * * * * * * * * * * //

dimensions      [0 1 -1 0 0 0 0];

internalField   nonuniform List<vector> 
8000
(
(-8.84816e-05 0.000115647 -3.40859e-05)
(-0.000484309 0.000229248 -5.16878e-06)
(-0.00114091 0.000268938 1.62065e-05)
(-0.00185279 0.000282695 2.41013e-05)
(-0.00258571 0.000292025 2.4283e-05)
(-0.0033274 0.000301527 1.95359e-05)
(-0.00406765 0.000309738 9.84855e-06)
(-0.00479215 0.000314195 -4.24045e-06)
(-0.00547744 0.000311398 -2.33197e-05)
(-0.00609005 0.000297258 -4.83765e-05)
(-0.00658539 0.000267462 -8.04197e-05)
(-0.00690857 0.000218205 -0.000120051)
(-0.00699794 0.000147339 -0.000167023)
(-0.00679273 5.55887e-05 -0.000219727)
(-0.00624378 -5.42654e-05 -0.000273019)
(-0.00533474 -0.000166911 -0.000319988)
(-0.00410512 -0.00026308 -0.000349349)
(-0.00266075 -0.000315341 -0.000347569)
(-0.00119359 -0.000281247 -0.000296405)
(-0.000242321 -0.000106707 -0.000156457)
(-0.000195446 0.000610555 -0.000102956)
(-0.000911203 0.0010709 -9.24588e-05)
(-0.00201638 0.00123095 -7.49347e-05)
(-0.00320478 0.00128485 -6.66466e-05)
(-0.0044193 0.00130905 -6.37576e-05)
(-0.00563684 0.00132332 -6.48732e-05)
(-0.0068353 0.00132585 -6.99303e-05)
(-0.00798814 0.00130811 -7.95688e-05)
(-0.00905796 0.00125794 -9.50338e-05)
(-0.00999345 0.00116112 -0.000117928)
(-0.010728 0.00100291 -0.000149897)
(-0.0111809 0.000770603 -0.000192094)
(-0.0112627 0.000457685 -0.000244858)
(-0.0108887 6.92709e-05 -0.000308025)
(-0.00998556 -0.000372451 -0.000370805)
(-0.00852919 -0.000818622 -0.0004264)
(-0.00658332 -0.00119397 -0.000459056)
(-0.00430582 -0.00139397 -0.0004503)
(-0.0019864 -0.0012695 -0.000372257)
(-0.000431145 -0.000613369 -0.000167795)
(-0.000234122 0.00143468 -0.000146864)
(-0.00107462 0.00239714 -0.000149335)
(-0.00235441 0.00272484 -0.000134736)
(-0.00371907 0.00283032 -0.000126001)
(-0.00510804 0.00286253 -0.000120741)
(-0.00649792 0.0028636 -0.000118504)
(-0.00786488 0.00283415 -0.000119527)
(-0.00918081 0.00275912 -0.000124935)
(-0.0104064 0.00261626 -0.000136521)
(-0.0114872 0.00237919 -0.000156537)
(-0.0123506 0.0020202 -0.00018747)
(-0.0129061 0.00151516 -0.000231548)
(-0.0130487 0.00085124 -0.000290002)
(-0.0126705 3.77491e-05 -0.000362055)
(-0.0116754 -0.000876664 -0.000438005)
(-0.0100189 -0.00180189 -0.00050658)
(-0.00775744 -0.00258277 -0.00054729)
(-0.0050727 -0.00300365 -0.000535702)
(-0.00231766 -0.00276892 -0.000436381)
(-0.000489819 -0.00144978 -0.00018346)
(-0.000240506 0.00235555 -0.000175916)
(-0.00112099 0.00387549 -0.000187462)
(-0.00246846 0.00438102 -0.000174481)
(-0.00390188 0.00453759 -0.000165402)
(-0.00536244 0.00457666 -0.000158939)
(-0.00683095 0.00456496 -0.000155251)
(-0.00828755 0.00450602 -0.000154945)
(-0.00970842 0.00437927 -0.000159598)
(-0.0110583 0.00415269 -0.000171602)
(-0.0122847 0.00378695 -0.00019404)
(-0.0133137 0.00323903 -0.000230483)
(-0.0140457 0.00246882 -0.000284416)
(-0.0143568 0.00145049 -0.000358405)
(-0.0141049 0.000189733 -0.000452302)
(-0.013151 -0.0012497 -0.000556726)
(-0.0114026 -0.00273497 -0.000652965)
(-0.00888511 -0.0040141 -0.000712994)
(-0.00580158 -0.0047281 -0.0007013)
(-0.00259475 -0.00438927 -0.000570771)
(-0.000516945 -0.0023114 -0.000241274)
(-0.000234912 0.00332425 -0.000197846)
(-0.00112152 0.00543804 -0.000217728)
(-0.00249449 0.00613182 -0.000206467)
(-0.00395837 0.00634437 -0.000197729)
(-0.00545747 0.00639814 -0.000191394)
(-0.00697878 0.00638741 -0.000188213)
(-0.00850969 0.00632012 -0.000189239)
(-0.0100347 0.00617145 -0.000196613)
(-0.0115269 0.00590014 -0.000213508)
(-0.0129407 0.00545288 -0.000244124)
(-0.0142039 0.00476745 -0.000293613)
(-0.0152092 0.00377984 -0.000367416)
(-0.0158085 0.00243862 -0.000469985)
(-0.015812 0.000731291 -0.000603421)
(-0.0150166 -0.00127833 -0.000760688)
(-0.0132409 -0.00343112 -0.000908432)
(-0.0104385 -0.00535149 -0.00100729)
(-0.00682485 -0.00648421 -0.00100019)
(-0.00297429 -0.00606923 -0.000817175)
(-0.000544393 -0.00312728 -0.000352932)
(-0.000224043 0.00432088 -0.000217361)
(-0.00110261 0.00706017 -0.000245603)
(-0.00248426 0.00795582 -0.000236314)
(-0.00396359 0.00823415 -0.000228517)
(-0.00548844 0.00831704 -0.000223316)
(-0.0070533 0.00833051 -0.00022212)
(-0.00865536 0.00828981 -0.000226583)
(-0.0102912 0.00816825 -0.000239622)
(-0.0119473 0.0079171 -0.000265515)
(-0.0135912 0.00746902 -0.000310112)
(-0.0151597 0.00673931 -0.000381066)
(-0.0165435 0.005631 -0.000487423)
(-0.0175701 0.00404981 -0.000637888)
(-0.0179915 0.00193555 -0.000836855)
(-0.017525 -0.000690119 -0.00109017)
(-0.0158383 -0.00361044 -0.00133309)
(-0.0127344 -0.0063802 -0.0015132)
(-0.00840025 -0.00815633 -0.00152818)
(-0.00357335 -0.00776089 -0.00125704)
(-0.000585452 -0.00383911 -0.000546339)
(-0.000209422 0.00533593 -0.000237607)
(-0.00107155 0.00873029 -0.000274949)
(-0.00245203 0.00984194 -0.000267821)
(-0.00393563 0.0101968 -0.000261167)
(-0.00547342 0.0103253 -0.000257447)
(-0.00706836 0.0103908 -0.000258892)
(-0.00872972 0.0104204 -0.000267982)
(-0.0104699 0.0103899 -0.000288717)
(-0.0122947 0.0102474 -0.00032696)
(-0.0141938 0.00991513 -0.000391041)
(-0.016125 0.00928627 -0.0004926)
(-0.0179919 0.00822518 -0.000646866)
(-0.0196135 0.00657703 -0.000870388)
(-0.0206972 0.00419792 -0.00117589)
(-0.0208053 0.00102675 -0.00157134)
(-0.0194379 -0.00274924 -0.00201942)
(-0.0161624 -0.00662982 -0.00237741)
(-0.010935 -0.00943876 -0.00246979)
(-0.00463596 -0.00934034 -0.00205983)
(-0.000688828 -0.00438377 -0.000886005)
(-0.000191302 0.00636597 -0.000260564)
(-0.00102983 0.0104452 -0.00030839)
(-0.00239971 0.011785 -0.00030343)
(-0.00387297 0.0122236 -0.000297537)
(-0.00540296 0.0124107 -0.000294812)
(-0.00700148 0.0125542 -0.000298553)
(-0.00869144 0.0126995 -0.000312345)
(-0.0105042 0.0128321 -0.000341645)
(-0.0124712 0.0129055 -0.000394512)
(-0.0146141 0.0128408 -0.000482874)
(-0.0169289 0.0125183 -0.000624446)
(-0.0193577 0.0117689 -0.000844635)
(-0.0217436 0.0103705 -0.00117595)
(-0.0237665 0.00806627 -0.00165116)
(-0.0248787 0.00463663 -0.0022904)
(-0.0243494 4.85901e-05 -0.00309787)
(-0.0213186 -0.00514295 -0.00383184)
(-0.0152302 -0.0095975 -0.00415046)
(-0.00682577 -0.0105084 -0.00356054)
(-0.00105703 -0.00476113 -0.00153286)
(-0.000170653 0.00741155 -0.000287783)
(-0.000980386 0.0122067 -0.00034803)
(-0.00233021 0.0137812 -0.000344937)
(-0.0037737 0.0143012 -0.000338693)
(-0.00526465 0.0145492 -0.000335463)
(-0.00682322 0.0147869 -0.000339939)
(-0.00848614 0.0150856 -0.000357115)
(-0.0103051 0.0154507 -0.000394275)
(-0.0123407 0.0158544 -0.000462295)
(-0.0146555 0.0162347 -0.000577906)
(-0.0173017 0.0164826 -0.000767296)
(-0.0202932 0.0164224 -0.00107077)
(-0.0235547 0.0157896 -0.00154614)
(-0.0268337 0.0142141 -0.0022636)
(-0.0295673 0.0112296 -0.00328107)
(-0.030725 0.0063945 -0.00460016)
(-0.0289558 -0.000248506 -0.00605937)
(-0.0227222 -0.00723802 -0.00693359)
(-0.0117745 -0.0107408 -0.00625172)
(-0.00232438 -0.00517873 -0.00290901)
(-0.00015063 0.0084797 -0.000321178)
(-0.000932571 0.0140232 -0.000396379)
(-0.00225631 0.015828 -0.000394418)
(-0.00364742 0.0164104 -0.000385799)
(-0.00505775 0.0167026 -0.000379316)
(-0.00651469 0.0170301 -0.000381462)
(-0.00806702 0.0174994 -0.000398922)
(-0.00978435 0.018147 -0.00044105)
(-0.0117542 0.0189812 -0.000521918)
(-0.0140816 0.0199839 -0.000663845)
(-0.0168846 0.0210971 -0.000903077)
(-0.0202784 0.0221971 -0.00129745)
(-0.0243395 0.0230519 -0.00193314)
(-0.0290297 0.0232452 -0.00292162)
(-0.0340192 0.0220324 -0.00436767)
(-0.0383221 0.018194 -0.00629462)
(-0.0397635 0.0103749 -0.00854176)
(-0.0352302 -0.000911034 -0.010343)
(-0.0223515 -0.010094 -0.0100455)
(-0.00582478 -0.00643177 -0.00582189)
(-0.000138298 0.00959093 -0.000363872)
(-0.000907364 0.0159177 -0.000457359)
(-0.0022089 0.01793 -0.000455189)
(-0.00352544 0.0185292 -0.000441015)
(-0.00480536 0.0188194 -0.000426993)
(-0.00608264 0.0192004 -0.000421925)
(-0.00741438 0.019821 -0.000434415)
(-0.00888035 0.0207591 -0.000475834)
(-0.0105838 0.0220766 -0.000563168)
(-0.0126582 0.0238301 -0.000723652)
(-0.0152753 0.0260647 -0.00100182)
(-0.0186536 0.0287917 -0.00146649)
(-0.0230705 0.0319262 -0.00220847)
(-0.028883 0.0351015 -0.0033199)
(-0.0364193 0.0371832 -0.00487217)
(-0.0452794 0.0354983 -0.00688944)
(-0.0528705 0.0260383 -0.00918987)
(-0.0534918 0.00727668 -0.0112734)
(-0.0405792 -0.0125183 -0.0121616)
(-0.0126699 -0.0120482 -0.0101182)
(-0.000147381 0.0107918 -0.000421469)
(-0.000944716 0.017941 -0.000537858)
(-0.00224711 0.0201077 -0.000533297)
(-0.00347166 0.0206389 -0.000508822)
(-0.00456623 0.0208404 -0.00048104)
(-0.00557434 0.0211947 -0.000461777)
(-0.00655691 0.0218954 -0.000461708)
(-0.00759087 0.0230653 -0.000493737)
(-0.00877255 0.0248298 -0.000576388)
(-0.0102299 0.0273428 -0.000738364)
(-0.0121435 0.0307959 -0.00102334)
(-0.0147872 0.0354048 -0.00148397)
(-0.0186327 0.0413028 -0.00213539)
(-0.024586 0.0481247 -0.00285868)
(-0.0341512 0.0539479 -0.0034084)
(-0.0484163 0.0537242 -0.00370408)
(-0.064903 0.0397089 -0.00397578)
(-0.0747438 0.00882064 -0.00452714)
(-0.0633335 -0.0271765 -0.00626737)
(-0.0207723 -0.0308092 -0.0113112)
(-0.000203125 0.0121759 -0.000504193)
(-0.00111517 0.02019 -0.00064958)
(-0.00247229 0.0224056 -0.000638649)
(-0.00359483 0.0227285 -0.000597104)
(-0.00444546 0.022705 -0.000547224)
(-0.00508989 0.0229026 -0.000504696)
(-0.00559095 0.0235509 -0.00048246)
(-0.00600672 0.0248086 -0.000494143)
(-0.00639578 0.0268579 -0.000557359)
(-0.00683073 0.0299455 -0.000695616)
(-0.00742761 0.0344077 -0.00093377)
(-0.00842999 0.0406531 -0.00125959)
(-0.0104639 0.0489451 -0.00148972)
(-0.0151073 0.0586417 -0.00105021)
(-0.0256291 0.0666424 0.00090534)
(-0.0462837 0.0656112 0.00450157)
(-0.075779 0.0442236 0.00877143)
(-0.0976721 -0.00532408 0.0129354)
(-0.0847882 -0.0657006 0.0108075)
(-0.0258835 -0.0707337 -0.00462796)
(-0.000354273 0.0139338 -0.000633802)
(-0.00154486 0.022865 -0.000820441)
(-0.00304978 0.0249378 -0.000797535)
(-0.00405925 0.0248252 -0.000726822)
(-0.0045979 0.0243753 -0.000640662)
(-0.00478463 0.0242318 -0.000561483)
(-0.00468767 0.0246348 -0.00050505)
(-0.00433156 0.0257504 -0.000484768)
(-0.00370807 0.0277872 -0.000514904)
(-0.00278861 0.0310393 -0.000606781)
(-0.00155729 0.0359196 -0.000748865)
(-0.000164469 0.0429412 -0.000828851)
(0.000612196 0.052324 -0.000393498)
(-0.00158169 0.0630269 0.00169551)
(-0.0123983 0.0711834 0.00685471)
(-0.0413837 0.0680177 0.0153306)
(-0.0873247 0.0337134 0.0257722)
(-0.118073 -0.0516221 0.0329344)
(-0.103055 -0.140827 0.0228798)
(-0.0286904 -0.137148 0.0013083)
(-0.000687323 0.016375 -0.000841921)
(-0.00244567 0.0261894 -0.00107151)
(-0.00424969 0.0277279 -0.00101564)
(-0.00511667 0.0268698 -0.000904408)
(-0.005241 0.0257739 -0.000770975)
(-0.00486625 0.0250955 -0.00064293)
(-0.00408036 0.0250369 -0.000541054)
(-0.00286365 0.0257308 -0.000480382)
(-0.00112677 0.0273614 -0.000473255)
(0.00128161 0.0302042 -0.00051378)
(0.00456613 0.0346919 -0.000549457)
(0.00870805 0.0412689 -0.000403126)
(0.0128244 0.050084 0.000612807)
(0.0140416 0.060092 0.00406724)
(0.00499932 0.0673578 0.0118966)
(-0.0296733 0.059852 0.0242824)
(-0.0855593 0.00340286 0.0371347)
(-0.118568 -0.121978 0.0360451)
(-0.114698 -0.223524 0.0156772)
(-0.0282773 -0.223371 -0.00735865)
(-0.00141572 0.0202049 -0.00124158)
(-0.00428538 0.0310716 -0.00158327)
(-0.00649554 0.0315078 -0.00149957)
(-0.00702413 0.0292783 -0.00128548)
(-0.00654864 0.0271 -0.00103413)
(-0.00549771 0.0255826 -0.000803329)
(-0.00396532 0.0247954 -0.000621402)
(-0.00188077 0.0247616 -0.000503462)
(0.000927239 0.0255727 -0.000455501)
(0.00477084 0.0274457 -0.000456814)
(0.00998701 0.0307192 -0.000464449)
(0.0167209 0.0356614 -0.000258191)
(0.0243442 0.042417 0.000892622)
(0.0302886 0.0502658 0.00459363)
(0.0280953 0.0561864 0.0130564)
(0.00121974 0.0452013 0.0259854)
(-0.0507382 -0.0241418 0.0350817)
(-0.0879528 -0.159509 0.0259279)
(-0.112282 -0.273118 0.00583095)
(-0.0213363 -0.304685 -0.0247874)
(-0.00263711 0.0278526 -0.00215801)
(-0.00756791 0.0371817 -0.00231147)
(-0.0106014 0.0342616 -0.00195295)
(-0.0104184 0.0304551 -0.00163998)
(-0.00884073 0.0274412 -0.00129237)
(-0.00672876 0.0252304 -0.000956194)
(-0.00418466 0.0237098 -0.000684291)
(-0.00107941 0.0228039 -0.000508774)
(0.00284317 0.0225857 -0.000430566)
(0.007985 0.0231196 -0.0004654)
(0.014722 0.0246296 -0.000560249)
(0.0234213 0.0271805 -0.000551681)
(0.0337994 0.0309001 0.000241712)
(0.0442251 0.035084 0.0030557)
(0.0504959 0.0384287 0.00985183)
(0.0409931 0.0287784 0.0204219)
(0.00358327 -0.0333604 0.0264459)
(-0.0376856 -0.158086 0.0189801)
(-0.0952846 -0.294537 0.00134467)
(-0.00853753 -0.362585 -0.0381869)
(-0.00520956 0.0319346 -0.00270082)
(-0.014326 0.0509641 -0.00386937)
(-0.0172336 0.0445475 -0.00393258)
(-0.0141938 0.0361358 -0.00322227)
(-0.00991477 0.0301931 -0.00235991)
(-0.00522146 0.0259918 -0.00162251)
(-0.000178883 0.0229091 -0.00106963)
(0.00534557 0.0205864 -0.000717578)
(0.0113882 0.0190268 -0.000566074)
(0.0184451 0.0180188 -0.000657672)
(0.0266335 0.0177443 -0.000895585)
(0.036736 0.0179259 -0.00120331)
(0.0481144 0.0188055 -0.00110291)
(0.0607162 0.0191334 0.000237556)
(0.0703192 0.0182857 0.00414503)
(0.07386 0.00955699 0.0110823)
(0.0504617 -0.0351396 0.0162008)
(0.0193897 -0.141123 0.0139094)
(-0.0640844 -0.283682 -0.00596581)
(0.0137964 -0.373743 -0.0458394)
(-0.0572614 0.0841621 -0.0105756)
(-0.0389346 0.050719 -0.00769608)
(-0.0223362 0.0313173 -0.0064875)
(-0.00125336 0.0238281 -0.00514448)
(0.0169142 0.019004 -0.00395602)
(0.0329735 0.015137 -0.00293747)
(0.0468986 0.012279 -0.00215447)
(0.0598607 0.0101338 -0.00164517)
(0.071158 0.00881686 -0.00133829)
(0.0828856 0.00775506 -0.00131308)
(0.0931907 0.007413 -0.00146105)
(0.105787 0.00698602 -0.00187542)
(0.115974 0.00730879 -0.0021758)
(0.130031 0.00662121 -0.00219576)
(0.135713 0.00461869 -0.000865201)
(0.145798 -0.00370836 0.00209671)
(0.125527 -0.0315222 0.00542629)
(0.120924 -0.101417 0.00661735)
(0.0190348 -0.214721 -0.00872887)
(0.0677703 -0.29883 -0.051729)
(0.134013 0.0889896 -0.0110359)
(0.161483 0.0612365 -0.0106604)
(0.21675 0.0401182 -0.00995296)
(0.262779 0.0279201 -0.00905711)
(0.29596 0.0204697 -0.00798852)
(0.322364 0.0152365 -0.00701341)
(0.342449 0.0115315 -0.00607177)
(0.361117 0.00868132 -0.00538297)
(0.37449 0.00676079 -0.00470462)
(0.389772 0.00516432 -0.0043275)
(0.398631 0.00425497 -0.00392334)
(0.413719 0.00336231 -0.00385392)
(0.418589 0.00306903 -0.00368333)
(0.435638 0.00250539 -0.00368031)
(0.43225 0.00198834 -0.00325024)
(0.447478 -2.98508e-05 -0.00264483)
(0.414464 -0.00638756 -0.00159391)
(0.406088 -0.0222478 -0.00251129)
(0.266435 -0.053939 -0.00747201)
(0.218338 -0.0979349 -0.0530371)
(-0.000149581 0.000177293 -0.000107271)
(-0.000832406 0.000412408 -7.73262e-05)
(-0.00196993 0.000498119 -4.30884e-05)
(-0.00319057 0.000521759 -2.89994e-05)
(-0.00442519 0.000529586 -2.9807e-05)
(-0.00565378 0.000533723 -4.19095e-05)
(-0.00685756 0.000534085 -6.49642e-05)
(-0.00801123 0.000525826 -9.96452e-05)
(-0.00907827 0.000502856 -0.000148056)
(-0.0100073 0.000458399 -0.000212794)
(-0.0107314 0.000385576 -0.000296174)
(-0.0111703 0.000278568 -0.000399265)
(-0.0112356 0.000134143 -0.000520695)
(-0.0108403 -4.73664e-05 -0.000654759)
(-0.00991662 -0.000254071 -0.000788718)
(-0.00844413 -0.000462321 -0.000904332)
(-0.00648053 -0.000634065 -0.000975547)
(-0.00418438 -0.000711698 -0.000972904)
(-0.00186086 -0.000604572 -0.000856276)
(-0.000370724 -0.000212574 -0.000510321)
(-0.00039767 0.000970459 -0.00025714)
(-0.00179845 0.00191048 -0.000273948)
(-0.00392083 0.00225249 -0.000244992)
(-0.00617553 0.00234452 -0.000227321)
(-0.00843968 0.00235348 -0.000221906)
(-0.0106645 0.00232921 -0.000228058)
(-0.0128047 0.00227467 -0.000246354)
(-0.0148087 0.00217556 -0.000279146)
(-0.0166102 0.00201169 -0.000330055)
(-0.0181229 0.00176029 -0.000403222)
(-0.0192403 0.00139857 -0.000502399)
(-0.0198388 0.000908095 -0.000629711)
(-0.0197879 0.000281441 -0.000784253)
(-0.0189604 -0.000468943 -0.000959456)
(-0.0172603 -0.00129695 -0.00113349)
(-0.0146699 -0.00211275 -0.00128343)
(-0.0112925 -0.00277075 -0.00137143)
(-0.00738289 -0.00305557 -0.00135461)
(-0.00342538 -0.00265097 -0.00116801)
(-0.000756347 -0.0011745 -0.000638868)
(-0.000506888 0.00231274 -0.000354967)
(-0.00223568 0.00426123 -0.0004063)
(-0.00480178 0.00495572 -0.000383499)
(-0.00750142 0.0051328 -0.000363754)
(-0.0101975 0.00511939 -0.000352616)
(-0.0128351 0.00501909 -0.000351683)
(-0.0153613 0.00484235 -0.000362657)
(-0.0177183 0.00456604 -0.000389145)
(-0.0198328 0.00415429 -0.000436234)
(-0.0216101 0.00356547 -0.000509802)
(-0.0229321 0.00275762 -0.000615661)
(-0.0236585 0.00169675 -0.000758225)
(-0.0236344 0.000369986 -0.000938339)
(-0.0227025 -0.00119555 -0.00114857)
(-0.0207337 -0.00291099 -0.0013661)
(-0.0176822 -0.00459687 -0.00155771)
(-0.0136485 -0.00595589 -0.00167225)
(-0.00892998 -0.00654724 -0.00165046)
(-0.00412349 -0.00574683 -0.00140759)
(-0.000898398 -0.00276244 -0.000741205)
(-0.000542346 0.00381342 -0.00042551)
(-0.00240755 0.00687765 -0.000503386)
(-0.00517664 0.00794289 -0.000485165)
(-0.008079 0.00820013 -0.000464277)
(-0.010976 0.00815653 -0.000450101)
(-0.0138176 0.0079738 -0.000445992)
(-0.0165555 0.00767127 -0.000454834)
(-0.0191369 0.00721735 -0.000481661)
(-0.0214928 0.00656021 -0.000533431)
(-0.0235301 0.00563743 -0.000618512)
(-0.0251261 0.00438325 -0.000745836)
(-0.026125 0.00274042 -0.000923187)
(-0.026341 0.000679404 -0.00115439)
(-0.0255656 -0.00177375 -0.00143604)
(-0.0235981 -0.00449674 -0.00173951)
(-0.0203173 -0.00721425 -0.00201579)
(-0.0157797 -0.00944379 -0.00219054)
(-0.0103155 -0.0104515 -0.00217249)
(-0.00467861 -0.00921387 -0.00184344)
(-0.000973036 -0.00446423 -0.000956284)
(-0.000550802 0.00538954 -0.000483093)
(-0.00247692 0.00964021 -0.000585791)
(-0.00535515 0.0110952 -0.000572579)
(-0.00837446 0.0114383 -0.000552285)
(-0.0113988 0.0113738 -0.000538197)
(-0.0143879 0.0111266 -0.000535448)
(-0.0173046 0.0107271 -0.000548341)
(-0.020109 0.0101363 -0.000583739)
(-0.0227444 0.00928578 -0.000651147)
(-0.0251264 0.00808889 -0.000762517)
(-0.0271323 0.00644772 -0.000931651)
(-0.02859 0.00426642 -0.00117178)
(-0.0292725 0.00147671 -0.0014914)
(-0.0288971 -0.00191792 -0.00190025)
(-0.0271458 -0.0057933 -0.00236031)
(-0.0237545 -0.00977903 -0.00279557)
(-0.0186694 -0.0131589 -0.00309218)
(-0.0122293 -0.0147872 -0.00309385)
(-0.00541945 -0.0130759 -0.00261342)
(-0.00105022 -0.00622153 -0.00133225)
(-0.000550586 0.0070153 -0.000537007)
(-0.00251346 0.012516 -0.000664945)
(-0.00547235 0.0143858 -0.000657431)
(-0.00858483 0.0148293 -0.000639157)
(-0.0117187 0.0147646 -0.000627523)
(-0.0148468 0.0144872 -0.000629656)
(-0.0179484 0.014042 -0.000651703)
(-0.0210034 0.0133852 -0.000703)
(-0.0239759 0.0124324 -0.000796634)
(-0.0268007 0.0110697 -0.000949915)
(-0.0293658 0.00915767 -0.00118455)
(-0.0314904 0.00654251 -0.00152494)
(-0.0329011 0.00308515 -0.00199507)
(-0.0332294 -0.0012816 -0.00260668)
(-0.0319938 -0.00647354 -0.00334223)
(-0.0286855 -0.0120583 -0.00407272)
(-0.0230189 -0.0170458 -0.00461963)
(-0.0152364 -0.0196944 -0.00469019)
(-0.0066027 -0.0175326 -0.00394318)
(-0.00115823 -0.00805701 -0.00194247)
(-0.000547251 0.00868269 -0.000594102)
(-0.0025406 0.0154956 -0.000749601)
(-0.00557378 0.0178069 -0.000748291)
(-0.00877214 0.0183676 -0.000732436)
(-0.0120075 0.018328 -0.000724005)
(-0.0152683 0.018063 -0.000732526)
(-0.0185554 0.0176386 -0.000766572)
(-0.0218757 0.0170112 -0.000838808)
(-0.0252258 0.0160846 -0.000967348)
(-0.028575 0.014718 -0.00117743)
(-0.0318421 0.0127244 -0.00150329)
(-0.03486 0.00987331 -0.0019885)
(-0.0373318 0.00591452 -0.00268151)
(-0.0388002 0.000639478 -0.00361648)
(-0.0385882 -0.0059708 -0.00480276)
(-0.0358367 -0.0135573 -0.00610861)
(-0.0297999 -0.0208628 -0.00717006)
(-0.020316 -0.0253372 -0.00744094)
(-0.00879185 -0.0229984 -0.00624604)
(-0.00138131 -0.0101174 -0.0029239)
(-0.000542223 0.0103925 -0.000659259)
(-0.00256483 0.0185831 -0.000846358)
(-0.00567049 0.0213605 -0.000851258)
(-0.00894566 0.0220509 -0.000836745)
(-0.0122652 0.0220579 -0.000830157)
(-0.015635 0.021848 -0.000843993)
(-0.019082 0.0215174 -0.000889922)
(-0.0226483 0.021032 -0.000984916)
(-0.0263758 0.0202934 -0.00115383)
(-0.0302891 0.019143 -0.00143309)
(-0.0343699 0.0173494 -0.0018758)
(-0.0385109 0.0145973 -0.00255632)
(-0.0424477 0.0104904 -0.0035656)
(-0.0456703 0.00460319 -0.00499287)
(-0.0473682 -0.00335741 -0.00693148)
(-0.0462576 -0.0132723 -0.00921764)
(-0.0407449 -0.0239367 -0.011238)
(-0.0295712 -0.0318951 -0.0119597)
(-0.013581 -0.0304702 -0.0101141)
(-0.00206337 -0.0130615 -0.00455367)
(-0.000537182 0.0121501 -0.000736757)
(-0.00259133 0.0217885 -0.000961057)
(-0.00576826 0.0250494 -0.000971371)
(-0.00910385 0.0258693 -0.000955269)
(-0.0124736 0.0259313 -0.000946602)
(-0.0159022 0.0258086 -0.000961528)
(-0.0194456 0.0256396 -0.00101546)
(-0.0231874 0.0254141 -0.00113053)
(-0.0272271 0.0250491 -0.00133995)
(-0.0316682 0.0243894 -0.00169467)
(-0.0365958 0.0231823 -0.00227373)
(-0.0420327 0.0210461 -0.00319644)
(-0.04786 0.0174408 -0.00462825)
(-0.0536922 0.011666 -0.00676011)
(-0.058694 0.00292795 -0.00969643)
(-0.0612712 -0.00937117 -0.0133022)
(-0.0585872 -0.0249276 -0.0166325)
(-0.0468579 -0.0397336 -0.0179155)
(-0.0247636 -0.042483 -0.0155185)
(-0.00423372 -0.0190056 -0.00741731)
(-0.000536805 0.0139685 -0.00083194)
(-0.0026333 0.0251294 -0.00110075)
(-0.0058841 0.0288763 -0.00111456)
(-0.00925684 0.0298025 -0.00109166)
(-0.0126245 0.0299029 -0.00107389)
(-0.0160305 0.029875 -0.00108185)
(-0.0195604 0.029914 -0.00113516)
(-0.0233415 0.0300515 -0.0012615)
(-0.0275377 0.0302463 -0.00150309)
(-0.0323487 0.0303836 -0.00192723)
(-0.0380042 0.0302409 -0.00264287)
(-0.0447404 0.0294357 -0.00382097)
(-0.05275 0.0273548 -0.00570147)
(-0.0620709 0.0230301 -0.00853446)
(-0.0722835 0.0148602 -0.0123764)
(-0.0816993 0.000335972 -0.0166985)
(-0.0855845 -0.0227658 -0.0198998)
(-0.0759594 -0.0511652 -0.02057)
(-0.0474984 -0.0655453 -0.0190299)
(-0.00969331 -0.0331516 -0.0122864)
(-0.000551455 0.0158772 -0.000953129)
(-0.0027199 0.02864 -0.00127593)
(-0.00605917 0.0328488 -0.00128975)
(-0.0094426 0.0338211 -0.00125203)
(-0.0127383 0.0339041 -0.00121447)
(-0.0160087 0.033938 -0.00120292)
(-0.0193663 0.0341883 -0.00124139)
(-0.0229763 0.0347476 -0.0013625)
(-0.0270611 0.0356479 -0.00161601)
(-0.0319171 0.0368665 -0.00208244)
(-0.0379369 0.0382927 -0.00289304)
(-0.0456315 0.0396626 -0.00424402)
(-0.0556651 0.0404222 -0.0063545)
(-0.068875 0.0393076 -0.00926865)
(-0.0858132 0.0331769 -0.0124036)
(-0.104634 0.0155275 -0.0140051)
(-0.117942 -0.0213145 -0.0120186)
(-0.112733 -0.0745656 -0.00876392)
(-0.0793318 -0.11128 -0.012217)
(-0.0181616 -0.0673226 -0.0172941)
(-0.000601205 0.0179374 -0.00111444)
(-0.00290662 0.032388 -0.00150398)
(-0.00637302 0.0369914 -0.00151219)
(-0.00974267 0.0378942 -0.00144795)
(-0.0128818 0.0378481 -0.00137543)
(-0.0158759 0.037852 -0.00132688)
(-0.0188588 0.0382495 -0.00133046)
(-0.022018 0.0392079 -0.00142178)
(-0.0256091 0.0408597 -0.00165314)
(-0.0299919 0.0433276 -0.00210617)
(-0.0356866 0.0467049 -0.00290168)
(-0.0434518 0.0509732 -0.00416349)
(-0.0544359 0.055692 -0.00580059)
(-0.0703907 0.0588952 -0.00696123)
(-0.0929871 0.0544839 -0.00541387)
(-0.120144 0.0298549 0.00210476)
(-0.141551 -0.0286397 0.015935)
(-0.14029 -0.114661 0.0236262)
(-0.10441 -0.179296 0.00916046)
(-0.0237836 -0.134325 -0.0140801)
(-0.000721942 0.0202636 -0.00133996)
(-0.00328918 0.0364839 -0.00181185)
(-0.0069622 0.0413381 -0.00180435)
(-0.0103005 0.0419811 -0.00169773)
(-0.0131857 0.0416284 -0.00157087)
(-0.0157424 0.0414423 -0.00146339)
(-0.0181214 0.0418383 -0.00140738)
(-0.0205073 0.0430559 -0.00143842)
(-0.0231412 0.0453369 -0.001603)
(-0.0263717 0.0489761 -0.00196125)
(-0.0307327 0.0543157 -0.00256194)
(-0.0370677 0.0616002 -0.00328996)
(-0.0467956 0.0703046 -0.00334704)
(-0.0622823 0.0770731 -0.000299544)
(-0.0861531 0.0720973 0.0101665)
(-0.117457 0.0381397 0.0314471)
(-0.145105 -0.0404915 0.0564906)
(-0.147087 -0.153405 0.0608438)
(-0.113775 -0.244061 0.0313493)
(-0.0216229 -0.219607 -0.0024972)
(-0.000983954 0.023094 -0.00167789)
(-0.00404028 0.0412008 -0.0022621)
(-0.0080447 0.0460613 -0.00222673)
(-0.0113266 0.0461197 -0.00205003)
(-0.0138441 0.0451735 -0.00183648)
(-0.0157953 0.0445465 -0.00163886)
(-0.0173454 0.0446922 -0.00149352)
(-0.0186462 0.045889 -0.00143255)
(-0.019866 0.0484587 -0.00148792)
(-0.0212432 0.0528354 -0.00167582)
(-0.023172 0.059556 -0.00191906)
(-0.0263633 0.069008 -0.00175721)
(-0.0322266 0.0803837 0.000447892)
(-0.0435424 0.0889619 0.00860681)
(-0.064263 0.0826879 0.0281849)
(-0.0967587 0.0429156 0.0599504)
(-0.129948 -0.0471988 0.08686)
(-0.133995 -0.179046 0.0769744)
(-0.111954 -0.291884 0.0347737)
(-0.0125729 -0.299422 -0.00122807)
(-0.00149181 0.0267253 -0.00219081)
(-0.00540535 0.0465776 -0.0028856)
(-0.00998158 0.0508582 -0.00277326)
(-0.0131912 0.049982 -0.00250748)
(-0.015176 0.048218 -0.00218966)
(-0.0163256 0.0469279 -0.00187855)
(-0.0168422 0.0465461 -0.00161934)
(-0.0168161 0.0473445 -0.00144432)
(-0.0162874 0.049669 -0.00137211)
(-0.0152989 0.0540112 -0.00136809)
(-0.0139773 0.0609949 -0.00122783)
(-0.0127182 0.0710151 -0.000245187)
(-0.0127301 0.0831033 0.00374704)
(-0.016924 0.0921641 0.0154062)
(-0.030283 0.0859474 0.0399751)
(-0.0592229 0.0456596 0.0741464)
(-0.093012 -0.048742 0.0941092)
(-0.0973212 -0.191045 0.0700357)
(-0.0994975 -0.321581 0.0259154)
(0.00188263 -0.369048 -0.014474)
(-0.0025848 0.0317769 -0.0030773)
(-0.00802006 0.0542608 -0.00402787)
(-0.0132109 0.0576284 -0.00387789)
(-0.0160735 0.054734 -0.00340599)
(-0.0173153 0.0513156 -0.00284584)
(-0.0175245 0.0488111 -0.00231628)
(-0.016905 0.0474472 -0.00187486)
(-0.0154605 0.0473383 -0.00155079)
(-0.013076 0.0487381 -0.00134649)
(-0.00954934 0.0520643 -0.00119179)
(-0.00470174 0.0579047 -0.000864314)
(0.00148816 0.0665682 0.000408929)
(0.0083062 0.0773926 0.00471783)
(0.013349 0.0861274 0.0163533)
(0.0122739 0.0823709 0.039865)
(-0.00365999 0.047774 0.0697172)
(-0.0313461 -0.0390094 0.0820639)
(-0.0371429 -0.17386 0.0557818)
(-0.0724676 -0.326818 0.0186775)
(0.0229123 -0.417979 -0.0295444)
(-0.00423113 0.0422618 -0.00494238)
(-0.0130351 0.0613692 -0.00562891)
(-0.019417 0.0597729 -0.00490822)
(-0.0212889 0.0556003 -0.0042465)
(-0.0210355 0.0517374 -0.00351766)
(-0.019866 0.0487068 -0.00278791)
(-0.0178863 0.0465951 -0.00216065)
(-0.0149036 0.0454436 -0.00169791)
(-0.0106445 0.045478 -0.00140396)
(-0.00471945 0.0469315 -0.00124858)
(0.00324413 0.0503649 -0.00102344)
(0.0137431 0.0559642 -0.000102868)
(0.0266531 0.0634957 0.00306735)
(0.0404022 0.0701271 0.0115832)
(0.0515277 0.0693069 0.0290326)
(0.0532784 0.0459218 0.051697)
(0.035229 -0.0224731 0.0598259)
(0.0298606 -0.141479 0.0413562)
(-0.0329181 -0.319777 0.010999)
(0.0533449 -0.441212 -0.0426526)
(-0.0029083 0.0405087 -0.0059573)
(-0.0139025 0.0804707 -0.00812909)
(-0.0243465 0.0773514 -0.00824115)
(-0.0270157 0.0662927 -0.00706162)
(-0.0259825 0.0579818 -0.00551407)
(-0.02287 0.0520357 -0.00412258)
(-0.0180141 0.0475052 -0.00302995)
(-0.0116229 0.0440113 -0.0022826)
(-0.00389449 0.0416631 -0.00189315)
(0.00553724 0.0403494 -0.00182854)
(0.0167213 0.0404946 -0.00196351)
(0.030492 0.0419669 -0.00192621)
(0.046471 0.0450225 -0.000644009)
(0.064868 0.0473751 0.00364407)
(0.081297 0.046127 0.0132179)
(0.0966955 0.0314115 0.0273676)
(0.0875814 -0.0153174 0.0339308)
(0.089052 -0.109921 0.0265299)
(0.0250148 -0.291625 0.00187019)
(0.104107 -0.42694 -0.0535373)
(-0.0942694 0.100609 -0.0181194)
(-0.0720836 0.0756691 -0.0146711)
(-0.0600759 0.0563878 -0.0127746)
(-0.0365181 0.0479963 -0.0105741)
(-0.0147968 0.0414897 -0.00857642)
(0.00656268 0.035995 -0.00684125)
(0.0265046 0.0316655 -0.00546332)
(0.046288 0.028148 -0.004528)
(0.0642008 0.0257383 -0.00391385)
(0.0832489 0.023743 -0.00376293)
(0.0998792 0.0228466 -0.00386249)
(0.119909 0.0221635 -0.0044034)
(0.135651 0.0227668 -0.00451103)
(0.158425 0.0230556 -0.00406328)
(0.168979 0.0210655 -0.000992111)
(0.194345 0.0136405 0.00403495)
(0.182462 -0.0164263 0.00953262)
(0.199396 -0.0804767 0.00754392)
(0.141322 -0.215995 -0.00634259)
(0.187416 -0.33029 -0.0622193)
(0.133745 0.112551 -0.0180471)
(0.168828 0.087348 -0.0183224)
(0.230629 0.0647424 -0.017569)
(0.286021 0.0503701 -0.0164023)
(0.328218 0.0408609 -0.0148842)
(0.365063 0.0336363 -0.0135244)
(0.393612 0.0281641 -0.0120528)
(0.422925 0.0236259 -0.0110993)
(0.443559 0.0202576 -0.00989192)
(0.469543 0.0173078 -0.00949606)
(0.484006 0.0152763 -0.00851535)
(0.50973 0.01333 -0.00883077)
(0.518592 0.0122709 -0.00781663)
(0.546091 0.0109431 -0.00872122)
(0.546647 0.010254 -0.0065587)
(0.572172 0.00738495 -0.00760584)
(0.548684 0.00213891 -0.00356221)
(0.547481 -0.0151885 -0.00917802)
(0.445268 -0.0451774 -0.00991994)
(0.362358 -0.0956373 -0.0641834)
(-0.000164413 0.000174322 -0.00016635)
(-0.00095216 0.000454453 -0.000188106)
(-0.00227742 0.000560031 -0.000171644)
(-0.00368945 0.000586789 -0.000162604)
(-0.00510629 0.000591995 -0.000166466)
(-0.00650473 0.000591481 -0.000183277)
(-0.00786431 0.000585277 -0.00021331)
(-0.00915758 0.000568259 -0.000259067)
(-0.010344 0.000533617 -0.000323667)
(-0.0113674 0.000473685 -0.000410322)
(-0.0121549 0.000380618 -0.000521504)
(-0.012619 0.000247656 -0.000657832)
(-0.0126632 7.08253e-05 -0.000816534)
(-0.0121913 -0.000148575 -0.000988653)
(-0.0111285 -0.000396257 -0.0011587)
(-0.00945055 -0.000643976 -0.00130382)
(-0.00722058 -0.000844088 -0.00139536)
(-0.00461857 -0.000923806 -0.00140288)
(-0.00199762 -0.000770618 -0.00128087)
(-0.000369763 -0.000268128 -0.000845711)
(-0.000473764 0.00103982 -0.000318908)